AutoDock-GPU version: v1.6-14-g28a61394827e4a7cc1a0c277bf23f1fdc917bb4f

**********************************************************
**    AutoDock-GPU AUTODOCKTOOLS-COMPATIBLE DLG FILE    **
**********************************************************


    DOCKING PARAMETERS
    ________________________


Ligand file:                               ligands_nrun50/0/ligand6.pdbqt
Grid fld file:                             2g76/2g76.maps.fld

Random seed:                               0
Number of runs:                            50
Number of energy evaluations:              480000
Number of generations:                     42000
Size of population:                        150
Rate of crossover:                         80.000000%
Tournament selection probability limit:    60.000000%
Rate of mutation:                          2.000000%
Maximal allowed delta movement:            +/- 6.000000A
Maximal allowed delta angle:               +/- 90.000000

Rate of local search:                      100.000000%
Maximal number of local search iterations: 300
Rho lower bound:                           0.010000
Spread of local search delta movement:     2.000000A
Spread of local search delta angle:        74.999999
Limit of consecutive successes/failures:   4

Handle symmetry during clustering:         YES
RMSD tolerance:                            2.000000A

Program call in command line was:          ../bin/autodock_gpu_128wi -M 2g76/2g76.maps.fld -L ligands_nrun50/0/ligand6.pdbqt -N outs_nrun50/ligand6 -nrun 50 -s 0 


    GRID PARAMETERS
    ________________________


Receptor name:                             2g76
Number of grid points (x, y, z):           61, 61, 61
Grid center (x, y, z):                     14.547000, 25.866000, 14.134000A
Grid size (x, y, z):                       22.500000, 22.500000, 22.500000A
Grid spacing:                              0.375000A


    LIGAND PARAMETERS
    ________________________


Ligand name:                               ligands_nrun50/0/ligand6
Number of atoms:                           23
Number of rotatable bonds:                 4
Number of atom types:                      7


    DUMMY DATA (only for ADT-compatibility)
    ________________________


DPF> outlev 1
DPF> ga_run 50
DPF> fld 2g76/2g76.maps.fld
DPF> move ligands_nrun50/0/ligand6.pdbqt


    COUNTER STATES
    ________________________


Number of energy evaluations performed:    492601
Number of generations used:                27


    INPUT LIGAND PDBQT FILE:
    ________________________


INPUT-LIGAND-PDBQT: REMARK  Name = 
INPUT-LIGAND-PDBQT: REMARK  5 active torsions:
INPUT-LIGAND-PDBQT: REMARK  status: ('A' for Active; 'I' for Inactive)
INPUT-LIGAND-PDBQT: REMARK    1  A    between atoms: C_1  and  C_2
INPUT-LIGAND-PDBQT: REMARK    2  A    between atoms: N_4  and  C_5
INPUT-LIGAND-PDBQT: REMARK    3  A    between atoms: C_8  and  N_9
INPUT-LIGAND-PDBQT: REMARK    4  A    between atoms: N_9  and  S_10
INPUT-LIGAND-PDBQT: REMARK    5  A    between atoms: S_10  and  C_13
INPUT-LIGAND-PDBQT: REMARK                            x       y       z     vdW  Elec       q    Type
INPUT-LIGAND-PDBQT: REMARK                         _______ _______ _______ _____ _____    ______ ____
INPUT-LIGAND-PDBQT: ROOT
INPUT-LIGAND-PDBQT: ATOM      1  N   UNL     1       8.851   0.717   1.418  0.00  0.00    -0.216 N 
INPUT-LIGAND-PDBQT: ATOM      2  H   UNL     1       9.390   0.462   0.591  0.00  0.00    +0.174 HD
INPUT-LIGAND-PDBQT: ENDROOT
INPUT-LIGAND-PDBQT: BRANCH   1   6
INPUT-LIGAND-PDBQT: ATOM      3  C   UNL     1       4.648   0.368   1.153  0.00  0.00    +0.033 A 
INPUT-LIGAND-PDBQT: ATOM      4  C   UNL     1       5.373   0.992   0.133  0.00  0.00    +0.025 A 
INPUT-LIGAND-PDBQT: ATOM      5  C   UNL     1       6.763   1.119   0.218  0.00  0.00    +0.026 A 
INPUT-LIGAND-PDBQT: ATOM      6  C   UNL     1       7.436   0.609   1.322  0.00  0.00    +0.048 A 
INPUT-LIGAND-PDBQT: ATOM      7  C   UNL     1       6.720   0.023   2.364  0.00  0.00    +0.026 A 
INPUT-LIGAND-PDBQT: ATOM      8  C   UNL     1       5.329  -0.085   2.287  0.00  0.00    +0.025 A 
INPUT-LIGAND-PDBQT: BRANCH   3  12
INPUT-LIGAND-PDBQT: ATOM      9  C   UNL     1       0.997   0.022   0.282  0.00  0.00    +0.109 C 
INPUT-LIGAND-PDBQT: ATOM     10  C   UNL     1       2.451   0.271  -0.020  0.00  0.00    +0.214 C 
INPUT-LIGAND-PDBQT: ATOM     11  O   UNL     1       2.819   0.526  -1.162  0.00  0.00    -0.276 OA
INPUT-LIGAND-PDBQT: ATOM     12  N   UNL     1       3.253   0.163   1.103  0.00  0.00    -0.286 N 
INPUT-LIGAND-PDBQT: ATOM     13  H   UNL     1       2.820  -0.203   1.942  0.00  0.00    +0.155 HD
INPUT-LIGAND-PDBQT: ENDBRANCH   3  12
INPUT-LIGAND-PDBQT: ENDBRANCH   1   6
INPUT-LIGAND-PDBQT: BRANCH   1  14
INPUT-LIGAND-PDBQT: ATOM     14  S   UNL     1       9.494   2.112   2.134  0.00  0.00    +0.072 S 
INPUT-LIGAND-PDBQT: ATOM     15  O   UNL     1      10.934   2.002   2.030  0.00  0.00    -0.150 OA
INPUT-LIGAND-PDBQT: ATOM     16  O   UNL     1       8.794   3.267   1.616  0.00  0.00    -0.150 OA
INPUT-LIGAND-PDBQT: BRANCH  14  17
INPUT-LIGAND-PDBQT: ATOM     17  C   UNL     1       9.068   1.893   3.841  0.00  0.00    +0.109 A 
INPUT-LIGAND-PDBQT: ATOM     18  C   UNL     1       9.572   0.786   4.533  0.00  0.00    +0.030 A 
INPUT-LIGAND-PDBQT: ATOM     19  C   UNL     1       9.157   0.552   5.845  0.00  0.00    +0.022 A 
INPUT-LIGAND-PDBQT: ATOM     20  C   UNL     1       8.262   1.432   6.457  0.00  0.00    +0.041 A 
INPUT-LIGAND-PDBQT: ATOM     21 CL   UNL     1       7.733   1.127   8.065  0.00  0.00    -0.084 Cl
INPUT-LIGAND-PDBQT: ATOM     22  C   UNL     1       7.781   2.550   5.773  0.00  0.00    +0.022 A 
INPUT-LIGAND-PDBQT: ATOM     23  C   UNL     1       8.184   2.784   4.457  0.00  0.00    +0.030 A 
INPUT-LIGAND-PDBQT: ENDBRANCH  14  17
INPUT-LIGAND-PDBQT: ENDBRANCH   1  14
INPUT-LIGAND-PDBQT: TORSDOF 4


    FINAL DOCKED STATE:
    ________________________


Run:   1 / 50
Time taken for this run:   0.000s

DOCKED: MODEL        1
DOCKED: USER    Run = 1
DOCKED: USER
DOCKED: USER    Estimated Free Energy of Binding    =  -4.56 kcal/mol  [=(1)+(2)+(3)-(4)]
DOCKED: USER
DOCKED: USER    (1) Final Intermolecular Energy     =  -5.75 kcal/mol
DOCKED: USER        vdW + Hbond + desolv Energy     =  -5.58 kcal/mol
DOCKED: USER        Electrostatic Energy            =  -0.17 kcal/mol
DOCKED: USER        Moving Ligand-Fixed Receptor    =  -5.75 kcal/mol
DOCKED: USER        Moving Ligand-Moving Receptor   =  +0.00 kcal/mol
DOCKED: USER    (2) Final Total Internal Energy     =  -1.47 kcal/mol
DOCKED: USER    (3) Torsional Free Energy           =  +1.19 kcal/mol
DOCKED: USER    (4) Unbound System's Energy         =  -1.47 kcal/mol
DOCKED: USER
DOCKED: USER
DOCKED: REMARK  Name = 
DOCKED: REMARK  5 active torsions:
DOCKED: REMARK  status: ('A' for Active; 'I' for Inactive)
DOCKED: REMARK    1  A    between atoms: C_1  and  C_2
DOCKED: REMARK    2  A    between atoms: N_4  and  C_5
DOCKED: REMARK    3  A    between atoms: C_8  and  N_9
DOCKED: REMARK    4  A    between atoms: N_9  and  S_10
DOCKED: REMARK    5  A    between atoms: S_10  and  C_13
DOCKED: REMARK                            x       y       z     vdW  Elec       q    Type
DOCKED: REMARK                         _______ _______ _______ _____ _____    ______ ____
DOCKED: USER                              x       y       z     vdW  Elec       q    Type
DOCKED: USER                           _______ _______ _______ _____ _____    ______ ____
DOCKED: ROOT
DOCKED: ATOM      1  N   UNL     1       8.595  21.410  15.542 -0.26 +0.05    -0.216 N  
DOCKED: ATOM      2  H   UNL     1       8.376  21.365  14.547 -0.09 -0.04    +0.174 HD 
DOCKED: ENDROOT
DOCKED: BRANCH   1   6
DOCKED: ATOM      3  C   UNL     1      10.075  25.092  16.994 -0.16 -0.01    +0.033 A  
DOCKED: ATOM      4  C   UNL     1       9.178  24.338  17.758 -0.17 -0.01    +0.025 A  
DOCKED: ATOM      5  C   UNL     1       8.677  23.123  17.280 -0.18 -0.01    +0.026 A  
DOCKED: ATOM      6  C   UNL     1       9.083  22.651  16.037 -0.31 -0.01    +0.048 A  
DOCKED: ATOM      7  C   UNL     1       9.944  23.414  15.250 -0.38 -0.00    +0.026 A  
DOCKED: ATOM      8  C   UNL     1      10.427  24.637  15.720 -0.24 -0.00    +0.025 A  
DOCKED: BRANCH   3  12
DOCKED: ATOM      9  C   UNL     1      12.268  27.897  18.231 -0.16 -0.01    +0.109 C  
DOCKED: ATOM     10  C   UNL     1      11.989  26.498  17.748 -0.16 +0.00    +0.214 C  
DOCKED: ATOM     11  O   UNL     1      12.896  25.678  17.650 -0.15 -0.04    -0.276 OA 
DOCKED: ATOM     12  N   UNL     1      10.655  26.298  17.441 -0.14 +0.14    -0.286 N  
DOCKED: ATOM     13  H   UNL     1      10.059  27.117  17.430 -0.19 -0.25    +0.155 HD 
DOCKED: ENDBRANCH   3  12
DOCKED: ENDBRANCH   1   6
DOCKED: BRANCH   1  14
DOCKED: ATOM     14  S   UNL     1       9.381  19.993  16.037 -0.47 -0.01    +0.072 S  
DOCKED: ATOM     15  O   UNL     1       8.705  19.545  17.237 -0.17 +0.02    -0.150 OA 
DOCKED: ATOM     16  O   UNL     1       9.531  19.119  14.894 -0.32 +0.03    -0.150 OA 
DOCKED: BRANCH  14  17
DOCKED: ATOM     17  C   UNL     1      10.977  20.593  16.521 -0.25 -0.01    +0.109 A  
DOCKED: ATOM     18  C   UNL     1      11.215  20.891  17.868 -0.16 -0.00    +0.030 A  
DOCKED: ATOM     19  C   UNL     1      12.433  21.462  18.238 -0.17 -0.00    +0.022 A  
DOCKED: ATOM     20  C   UNL     1      13.406  21.711  17.268 -0.30 -0.01    +0.041 A  
DOCKED: ATOM     21 CL   UNL     1      14.897  22.438  17.724 -0.43 +0.01    -0.084 Cl 
DOCKED: ATOM     22  C   UNL     1      13.176  21.389  15.929 -0.34 -0.00    +0.022 A  
DOCKED: ATOM     23  C   UNL     1      11.956  20.828  15.550 -0.40 -0.00    +0.030 A  
DOCKED: ENDBRANCH  14  17
DOCKED: ENDBRANCH   1  14
DOCKED: TORSDOF 4
DOCKED: TER
DOCKED: ENDMDL
________________________________________________________________________________


    FINAL DOCKED STATE:
    ________________________


Run:   2 / 50
Time taken for this run:   0.000s

DOCKED: MODEL        2
DOCKED: USER    Run = 2
DOCKED: USER
DOCKED: USER    Estimated Free Energy of Binding    =  -4.57 kcal/mol  [=(1)+(2)+(3)-(4)]
DOCKED: USER
DOCKED: USER    (1) Final Intermolecular Energy     =  -5.77 kcal/mol
DOCKED: USER        vdW + Hbond + desolv Energy     =  -5.62 kcal/mol
DOCKED: USER        Electrostatic Energy            =  -0.15 kcal/mol
DOCKED: USER        Moving Ligand-Fixed Receptor    =  -5.77 kcal/mol
DOCKED: USER        Moving Ligand-Moving Receptor   =  +0.00 kcal/mol
DOCKED: USER    (2) Final Total Internal Energy     =  -1.49 kcal/mol
DOCKED: USER    (3) Torsional Free Energy           =  +1.19 kcal/mol
DOCKED: USER    (4) Unbound System's Energy         =  -1.49 kcal/mol
DOCKED: USER
DOCKED: USER
DOCKED: REMARK  Name = 
DOCKED: REMARK  5 active torsions:
DOCKED: REMARK  status: ('A' for Active; 'I' for Inactive)
DOCKED: REMARK    1  A    between atoms: C_1  and  C_2
DOCKED: REMARK    2  A    between atoms: N_4  and  C_5
DOCKED: REMARK    3  A    between atoms: C_8  and  N_9
DOCKED: REMARK    4  A    between atoms: N_9  and  S_10
DOCKED: REMARK    5  A    between atoms: S_10  and  C_13
DOCKED: REMARK                            x       y       z     vdW  Elec       q    Type
DOCKED: REMARK                         _______ _______ _______ _____ _____    ______ ____
DOCKED: USER                              x       y       z     vdW  Elec       q    Type
DOCKED: USER                           _______ _______ _______ _____ _____    ______ ____
DOCKED: ROOT
DOCKED: ATOM      1  N   UNL     1       8.571  21.334  15.641 -0.26 +0.05    -0.216 N  
DOCKED: ATOM      2  H   UNL     1       8.251  21.279  14.675 -0.06 -0.05    +0.174 HD 
DOCKED: ENDROOT
DOCKED: BRANCH   1   6
DOCKED: ATOM      3  C   UNL     1      10.175  25.034  16.905 -0.18 -0.01    +0.033 A  
DOCKED: ATOM      4  C   UNL     1       9.319  24.310  17.741 -0.17 -0.01    +0.025 A  
DOCKED: ATOM      5  C   UNL     1       8.778  23.089  17.326 -0.17 -0.01    +0.026 A  
DOCKED: ATOM      6  C   UNL     1       9.102  22.581  16.074 -0.30 -0.01    +0.048 A  
DOCKED: ATOM      7  C   UNL     1       9.919  23.314  15.215 -0.36 -0.00    +0.026 A  
DOCKED: ATOM      8  C   UNL     1      10.443  24.543  15.623 -0.26 +0.00    +0.025 A  
DOCKED: BRANCH   3  12
DOCKED: ATOM      9  C   UNL     1      12.454  27.831  17.996 -0.17 +0.01    +0.109 C  
DOCKED: ATOM     10  C   UNL     1      12.130  26.415  17.597 -0.13 +0.02    +0.214 C  
DOCKED: ATOM     11  O   UNL     1      13.007  25.557  17.564 -0.15 -0.04    -0.276 OA 
DOCKED: ATOM     12  N   UNL     1      10.793  26.244  17.284 -0.17 +0.10    -0.286 N  
DOCKED: ATOM     13  H   UNL     1      10.228  27.082  17.213 -0.22 -0.21    +0.155 HD 
DOCKED: ENDBRANCH   3  12
DOCKED: ENDBRANCH   1   6
DOCKED: BRANCH   1  14
DOCKED: ATOM     14  S   UNL     1       9.411  19.924  16.065 -0.47 -0.01    +0.072 S  
DOCKED: ATOM     15  O   UNL     1       8.786  19.418  17.269 -0.17 +0.02    -0.150 OA 
DOCKED: ATOM     16  O   UNL     1       9.550  19.093  14.889 -0.32 +0.03    -0.150 OA 
DOCKED: BRANCH  14  17
DOCKED: ATOM     17  C   UNL     1      11.004  20.555  16.521 -0.26 -0.01    +0.109 A  
DOCKED: ATOM     18  C   UNL     1      11.252  20.880  17.859 -0.16 -0.00    +0.030 A  
DOCKED: ATOM     19  C   UNL     1      12.467  21.473  18.206 -0.17 -0.00    +0.022 A  
DOCKED: ATOM     20  C   UNL     1      13.426  21.717  17.221 -0.31 -0.00    +0.041 A  
DOCKED: ATOM     21 CL   UNL     1      14.912  22.471  17.647 -0.43 +0.01    -0.084 Cl 
DOCKED: ATOM     22  C   UNL     1      13.187  21.368  15.891 -0.34 -0.00    +0.022 A  
DOCKED: ATOM     23  C   UNL     1      11.969  20.784  15.535 -0.39 -0.00    +0.030 A  
DOCKED: ENDBRANCH  14  17
DOCKED: ENDBRANCH   1  14
DOCKED: TORSDOF 4
DOCKED: TER
DOCKED: ENDMDL
________________________________________________________________________________


    FINAL DOCKED STATE:
    ________________________


Run:   3 / 50
Time taken for this run:   0.000s

DOCKED: MODEL        3
DOCKED: USER    Run = 3
DOCKED: USER
DOCKED: USER    Estimated Free Energy of Binding    =  -4.57 kcal/mol  [=(1)+(2)+(3)-(4)]
DOCKED: USER
DOCKED: USER    (1) Final Intermolecular Energy     =  -5.76 kcal/mol
DOCKED: USER        vdW + Hbond + desolv Energy     =  -5.61 kcal/mol
DOCKED: USER        Electrostatic Energy            =  -0.15 kcal/mol
DOCKED: USER        Moving Ligand-Fixed Receptor    =  -5.76 kcal/mol
DOCKED: USER        Moving Ligand-Moving Receptor   =  +0.00 kcal/mol
DOCKED: USER    (2) Final Total Internal Energy     =  -1.49 kcal/mol
DOCKED: USER    (3) Torsional Free Energy           =  +1.19 kcal/mol
DOCKED: USER    (4) Unbound System's Energy         =  -1.49 kcal/mol
DOCKED: USER
DOCKED: USER
DOCKED: REMARK  Name = 
DOCKED: REMARK  5 active torsions:
DOCKED: REMARK  status: ('A' for Active; 'I' for Inactive)
DOCKED: REMARK    1  A    between atoms: C_1  and  C_2
DOCKED: REMARK    2  A    between atoms: N_4  and  C_5
DOCKED: REMARK    3  A    between atoms: C_8  and  N_9
DOCKED: REMARK    4  A    between atoms: N_9  and  S_10
DOCKED: REMARK    5  A    between atoms: S_10  and  C_13
DOCKED: REMARK                            x       y       z     vdW  Elec       q    Type
DOCKED: REMARK                         _______ _______ _______ _____ _____    ______ ____
DOCKED: USER                              x       y       z     vdW  Elec       q    Type
DOCKED: USER                           _______ _______ _______ _____ _____    ______ ____
DOCKED: ROOT
DOCKED: ATOM      1  N   UNL     1       8.569  21.300  15.645 -0.26 +0.04    -0.216 N  
DOCKED: ATOM      2  H   UNL     1       8.241  21.241  14.682 -0.05 -0.05    +0.174 HD 
DOCKED: ENDROOT
DOCKED: BRANCH   1   6
DOCKED: ATOM      3  C   UNL     1      10.163  25.011  16.888 -0.18 -0.01    +0.033 A  
DOCKED: ATOM      4  C   UNL     1       9.318  24.284  17.733 -0.17 -0.01    +0.025 A  
DOCKED: ATOM      5  C   UNL     1       8.779  23.060  17.325 -0.17 -0.01    +0.026 A  
DOCKED: ATOM      6  C   UNL     1       9.097  22.550  16.071 -0.30 -0.01    +0.048 A  
DOCKED: ATOM      7  C   UNL     1       9.904  23.285  15.205 -0.35 -0.00    +0.026 A  
DOCKED: ATOM      8  C   UNL     1      10.424  24.518  15.606 -0.27 +0.00    +0.025 A  
DOCKED: BRANCH   3  12
DOCKED: ATOM      9  C   UNL     1      12.431  27.818  17.978 -0.17 +0.01    +0.109 C  
DOCKED: ATOM     10  C   UNL     1      12.110  26.397  17.595 -0.14 +0.02    +0.214 C  
DOCKED: ATOM     11  O   UNL     1      12.984  25.537  17.590 -0.14 -0.04    -0.276 OA 
DOCKED: ATOM     12  N   UNL     1      10.778  26.225  17.260 -0.16 +0.10    -0.286 N  
DOCKED: ATOM     13  H   UNL     1      10.217  27.063  17.167 -0.22 -0.21    +0.155 HD 
DOCKED: ENDBRANCH   3  12
DOCKED: ENDBRANCH   1   6
DOCKED: BRANCH   1  14
DOCKED: ATOM     14  S   UNL     1       9.421  19.895  16.064 -0.47 -0.01    +0.072 S  
DOCKED: ATOM     15  O   UNL     1       8.802  19.381  17.268 -0.18 +0.02    -0.150 OA 
DOCKED: ATOM     16  O   UNL     1       9.564  19.068  14.886 -0.31 +0.03    -0.150 OA 
DOCKED: BRANCH  14  17
DOCKED: ATOM     17  C   UNL     1      11.010  20.537  16.518 -0.26 -0.01    +0.109 A  
DOCKED: ATOM     18  C   UNL     1      11.261  20.851  17.859 -0.16 -0.00    +0.030 A  
DOCKED: ATOM     19  C   UNL     1      12.471  21.453  18.206 -0.17 -0.00    +0.022 A  
DOCKED: ATOM     20  C   UNL     1      13.423  21.716  17.219 -0.31 -0.00    +0.041 A  
DOCKED: ATOM     21 CL   UNL     1      14.904  22.481  17.645 -0.43 +0.01    -0.084 Cl 
DOCKED: ATOM     22  C   UNL     1      13.181  21.377  15.886 -0.33 -0.00    +0.022 A  
DOCKED: ATOM     23  C   UNL     1      11.968  20.785  15.531 -0.39 -0.00    +0.030 A  
DOCKED: ENDBRANCH  14  17
DOCKED: ENDBRANCH   1  14
DOCKED: TORSDOF 4
DOCKED: TER
DOCKED: ENDMDL
________________________________________________________________________________


    FINAL DOCKED STATE:
    ________________________


Run:   4 / 50
Time taken for this run:   0.000s

DOCKED: MODEL        4
DOCKED: USER    Run = 4
DOCKED: USER
DOCKED: USER    Estimated Free Energy of Binding    =  -4.53 kcal/mol  [=(1)+(2)+(3)-(4)]
DOCKED: USER
DOCKED: USER    (1) Final Intermolecular Energy     =  -5.72 kcal/mol
DOCKED: USER        vdW + Hbond + desolv Energy     =  -5.57 kcal/mol
DOCKED: USER        Electrostatic Energy            =  -0.15 kcal/mol
DOCKED: USER        Moving Ligand-Fixed Receptor    =  -5.72 kcal/mol
DOCKED: USER        Moving Ligand-Moving Receptor   =  +0.00 kcal/mol
DOCKED: USER    (2) Final Total Internal Energy     =  -1.49 kcal/mol
DOCKED: USER    (3) Torsional Free Energy           =  +1.19 kcal/mol
DOCKED: USER    (4) Unbound System's Energy         =  -1.49 kcal/mol
DOCKED: USER
DOCKED: USER
DOCKED: REMARK  Name = 
DOCKED: REMARK  5 active torsions:
DOCKED: REMARK  status: ('A' for Active; 'I' for Inactive)
DOCKED: REMARK    1  A    between atoms: C_1  and  C_2
DOCKED: REMARK    2  A    between atoms: N_4  and  C_5
DOCKED: REMARK    3  A    between atoms: C_8  and  N_9
DOCKED: REMARK    4  A    between atoms: N_9  and  S_10
DOCKED: REMARK    5  A    between atoms: S_10  and  C_13
DOCKED: REMARK                            x       y       z     vdW  Elec       q    Type
DOCKED: REMARK                         _______ _______ _______ _____ _____    ______ ____
DOCKED: USER                              x       y       z     vdW  Elec       q    Type
DOCKED: USER                           _______ _______ _______ _____ _____    ______ ____
DOCKED: ROOT
DOCKED: ATOM      1  N   UNL     1       8.696  21.201  15.806 -0.24 +0.04    -0.216 N  
DOCKED: ATOM      2  H   UNL     1       8.274  21.129  14.881 +0.01 -0.04    +0.174 HD 
DOCKED: ENDROOT
DOCKED: BRANCH   1   6
DOCKED: ATOM      3  C   UNL     1      10.201  24.990  16.919 -0.19 -0.01    +0.033 A  
DOCKED: ATOM      4  C   UNL     1       9.426  24.245  17.813 -0.16 -0.01    +0.025 A  
DOCKED: ATOM      5  C   UNL     1       8.917  22.994  17.448 -0.15 -0.01    +0.026 A  
DOCKED: ATOM      6  C   UNL     1       9.194  22.478  16.188 -0.29 -0.01    +0.048 A  
DOCKED: ATOM      7  C   UNL     1       9.930  23.229  15.274 -0.37 -0.00    +0.026 A  
DOCKED: ATOM      8  C   UNL     1      10.421  24.487  15.633 -0.29 +0.00    +0.025 A  
DOCKED: BRANCH   3  12
DOCKED: ATOM      9  C   UNL     1      12.398  27.891  17.901 -0.18 +0.01    +0.109 C  
DOCKED: ATOM     10  C   UNL     1      12.113  26.450  17.573 -0.13 +0.03    +0.214 C  
DOCKED: ATOM     11  O   UNL     1      13.008  25.612  17.602 -0.15 -0.04    -0.276 OA 
DOCKED: ATOM     12  N   UNL     1      10.786  26.232  17.245 -0.17 +0.10    -0.286 N  
DOCKED: ATOM     13  H   UNL     1      10.204  27.051  17.118 -0.22 -0.21    +0.155 HD 
DOCKED: ENDBRANCH   3  12
DOCKED: ENDBRANCH   1   6
DOCKED: BRANCH   1  14
DOCKED: ATOM     14  S   UNL     1       9.663  19.845  16.120 -0.48 -0.01    +0.072 S  
DOCKED: ATOM     15  O   UNL     1       9.098  19.197  17.285 -0.19 +0.02    -0.150 OA 
DOCKED: ATOM     16  O   UNL     1       9.863  19.119  14.885 -0.43 +0.02    -0.150 OA 
DOCKED: BRANCH  14  17
DOCKED: ATOM     17  C   UNL     1      11.198  20.581  16.616 -0.25 -0.01    +0.109 A  
DOCKED: ATOM     18  C   UNL     1      11.427  20.830  17.974 -0.16 -0.00    +0.030 A  
DOCKED: ATOM     19  C   UNL     1      12.588  21.503  18.359 -0.17 -0.00    +0.022 A  
DOCKED: ATOM     20  C   UNL     1      13.513  21.901  17.392 -0.29 -0.00    +0.041 A  
DOCKED: ATOM     21 CL   UNL     1      14.930  22.753  17.868 -0.40 +0.01    -0.084 Cl 
DOCKED: ATOM     22  C   UNL     1      13.294  21.628  16.040 -0.28 -0.00    +0.022 A  
DOCKED: ATOM     23  C   UNL     1      12.130  20.965  15.647 -0.41 -0.00    +0.030 A  
DOCKED: ENDBRANCH  14  17
DOCKED: ENDBRANCH   1  14
DOCKED: TORSDOF 4
DOCKED: TER
DOCKED: ENDMDL
________________________________________________________________________________


    FINAL DOCKED STATE:
    ________________________


Run:   5 / 50
Time taken for this run:   0.000s

DOCKED: MODEL        5
DOCKED: USER    Run = 5
DOCKED: USER
DOCKED: USER    Estimated Free Energy of Binding    =  -4.53 kcal/mol  [=(1)+(2)+(3)-(4)]
DOCKED: USER
DOCKED: USER    (1) Final Intermolecular Energy     =  -5.73 kcal/mol
DOCKED: USER        vdW + Hbond + desolv Energy     =  -5.56 kcal/mol
DOCKED: USER        Electrostatic Energy            =  -0.17 kcal/mol
DOCKED: USER        Moving Ligand-Fixed Receptor    =  -5.73 kcal/mol
DOCKED: USER        Moving Ligand-Moving Receptor   =  +0.00 kcal/mol
DOCKED: USER    (2) Final Total Internal Energy     =  -1.49 kcal/mol
DOCKED: USER    (3) Torsional Free Energy           =  +1.19 kcal/mol
DOCKED: USER    (4) Unbound System's Energy         =  -1.49 kcal/mol
DOCKED: USER
DOCKED: USER
DOCKED: REMARK  Name = 
DOCKED: REMARK  5 active torsions:
DOCKED: REMARK  status: ('A' for Active; 'I' for Inactive)
DOCKED: REMARK    1  A    between atoms: C_1  and  C_2
DOCKED: REMARK    2  A    between atoms: N_4  and  C_5
DOCKED: REMARK    3  A    between atoms: C_8  and  N_9
DOCKED: REMARK    4  A    between atoms: N_9  and  S_10
DOCKED: REMARK    5  A    between atoms: S_10  and  C_13
DOCKED: REMARK                            x       y       z     vdW  Elec       q    Type
DOCKED: REMARK                         _______ _______ _______ _____ _____    ______ ____
DOCKED: USER                              x       y       z     vdW  Elec       q    Type
DOCKED: USER                           _______ _______ _______ _____ _____    ______ ____
DOCKED: ROOT
DOCKED: ATOM      1  N   UNL     1       8.731  21.200  15.668 -0.25 +0.04    -0.216 N  
DOCKED: ATOM      2  H   UNL     1       8.393  21.130  14.709 +0.01 -0.04    +0.174 HD 
DOCKED: ENDROOT
DOCKED: BRANCH   1   6
DOCKED: ATOM      3  C   UNL     1      10.132  24.985  16.920 -0.18 -0.01    +0.033 A  
DOCKED: ATOM      4  C   UNL     1       9.319  24.217  17.759 -0.17 -0.01    +0.025 A  
DOCKED: ATOM      5  C   UNL     1       8.844  22.968  17.348 -0.16 -0.01    +0.026 A  
DOCKED: ATOM      6  C   UNL     1       9.193  22.475  16.097 -0.30 -0.01    +0.048 A  
DOCKED: ATOM      7  C   UNL     1       9.968  23.249  15.235 -0.36 -0.00    +0.026 A  
DOCKED: ATOM      8  C   UNL     1      10.425  24.506  15.639 -0.28 +0.00    +0.025 A  
DOCKED: BRANCH   3  12
DOCKED: ATOM      9  C   UNL     1      12.264  27.910  17.974 -0.18 +0.00    +0.109 C  
DOCKED: ATOM     10  C   UNL     1      12.018  26.481  17.566 -0.14 +0.02    +0.214 C  
DOCKED: ATOM     11  O   UNL     1      12.946  25.682  17.493 -0.15 -0.05    -0.276 OA 
DOCKED: ATOM     12  N   UNL     1      10.684  26.228  17.295 -0.15 +0.12    -0.286 N  
DOCKED: ATOM     13  H   UNL     1      10.065  27.028  17.254 -0.20 -0.24    +0.155 HD 
DOCKED: ENDBRANCH   3  12
DOCKED: ENDBRANCH   1   6
DOCKED: BRANCH   1  14
DOCKED: ATOM     14  S   UNL     1       9.665  19.842  16.065 -0.49 -0.01    +0.072 S  
DOCKED: ATOM     15  O   UNL     1       9.052  19.247  17.234 -0.19 +0.02    -0.150 OA 
DOCKED: ATOM     16  O   UNL     1       9.894  19.067  14.865 -0.40 +0.03    -0.150 OA 
DOCKED: BRANCH  14  17
DOCKED: ATOM     17  C   UNL     1      11.195  20.573  16.583 -0.25 -0.01    +0.109 A  
DOCKED: ATOM     18  C   UNL     1      11.403  20.828  17.944 -0.16 -0.00    +0.030 A  
DOCKED: ATOM     19  C   UNL     1      12.559  21.497  18.346 -0.17 -0.00    +0.022 A  
DOCKED: ATOM     20  C   UNL     1      13.503  21.887  17.393 -0.29 -0.00    +0.041 A  
DOCKED: ATOM     21 CL   UNL     1      14.915  22.734  17.889 -0.40 +0.01    -0.084 Cl 
DOCKED: ATOM     22  C   UNL     1      13.305  21.608  16.039 -0.28 -0.00    +0.022 A  
DOCKED: ATOM     23  C   UNL     1      12.145  20.948  15.629 -0.41 -0.00    +0.030 A  
DOCKED: ENDBRANCH  14  17
DOCKED: ENDBRANCH   1  14
DOCKED: TORSDOF 4
DOCKED: TER
DOCKED: ENDMDL
________________________________________________________________________________


    FINAL DOCKED STATE:
    ________________________


Run:   6 / 50
Time taken for this run:   0.000s

DOCKED: MODEL        6
DOCKED: USER    Run = 6
DOCKED: USER
DOCKED: USER    Estimated Free Energy of Binding    =  -4.58 kcal/mol  [=(1)+(2)+(3)-(4)]
DOCKED: USER
DOCKED: USER    (1) Final Intermolecular Energy     =  -5.77 kcal/mol
DOCKED: USER        vdW + Hbond + desolv Energy     =  -5.62 kcal/mol
DOCKED: USER        Electrostatic Energy            =  -0.15 kcal/mol
DOCKED: USER        Moving Ligand-Fixed Receptor    =  -5.77 kcal/mol
DOCKED: USER        Moving Ligand-Moving Receptor   =  +0.00 kcal/mol
DOCKED: USER    (2) Final Total Internal Energy     =  -1.48 kcal/mol
DOCKED: USER    (3) Torsional Free Energy           =  +1.19 kcal/mol
DOCKED: USER    (4) Unbound System's Energy         =  -1.48 kcal/mol
DOCKED: USER
DOCKED: USER
DOCKED: REMARK  Name = 
DOCKED: REMARK  5 active torsions:
DOCKED: REMARK  status: ('A' for Active; 'I' for Inactive)
DOCKED: REMARK    1  A    between atoms: C_1  and  C_2
DOCKED: REMARK    2  A    between atoms: N_4  and  C_5
DOCKED: REMARK    3  A    between atoms: C_8  and  N_9
DOCKED: REMARK    4  A    between atoms: N_9  and  S_10
DOCKED: REMARK    5  A    between atoms: S_10  and  C_13
DOCKED: REMARK                            x       y       z     vdW  Elec       q    Type
DOCKED: REMARK                         _______ _______ _______ _____ _____    ______ ____
DOCKED: USER                              x       y       z     vdW  Elec       q    Type
DOCKED: USER                           _______ _______ _______ _____ _____    ______ ____
DOCKED: ROOT
DOCKED: ATOM      1  N   UNL     1       8.543  21.301  15.680 -0.26 +0.05    -0.216 N  
DOCKED: ATOM      2  H   UNL     1       8.186  21.243  14.727 -0.05 -0.05    +0.174 HD 
DOCKED: ENDROOT
DOCKED: BRANCH   1   6
DOCKED: ATOM      3  C   UNL     1      10.167  25.013  16.879 -0.17 -0.01    +0.033 A  
DOCKED: ATOM      4  C   UNL     1       9.306  24.310  17.727 -0.17 -0.01    +0.025 A  
DOCKED: ATOM      5  C   UNL     1       8.758  23.085  17.333 -0.17 -0.01    +0.026 A  
DOCKED: ATOM      6  C   UNL     1       9.080  22.552  16.091 -0.30 -0.01    +0.048 A  
DOCKED: ATOM      7  C   UNL     1       9.904  23.265  15.221 -0.36 -0.00    +0.026 A  
DOCKED: ATOM      8  C   UNL     1      10.435  24.498  15.607 -0.27 +0.00    +0.025 A  
DOCKED: BRANCH   3  12
DOCKED: ATOM      9  C   UNL     1      12.464  27.816  17.919 -0.18 +0.01    +0.109 C  
DOCKED: ATOM     10  C   UNL     1      12.132  26.396  17.544 -0.13 +0.03    +0.214 C  
DOCKED: ATOM     11  O   UNL     1      13.004  25.533  17.520 -0.15 -0.04    -0.276 OA 
DOCKED: ATOM     12  N   UNL     1      10.793  26.226  17.238 -0.17 +0.09    -0.286 N  
DOCKED: ATOM     13  H   UNL     1      10.231  27.065  17.156 -0.22 -0.20    +0.155 HD 
DOCKED: ENDBRANCH   3  12
DOCKED: ENDBRANCH   1   6
DOCKED: BRANCH   1  14
DOCKED: ATOM     14  S   UNL     1       9.409  19.898  16.072 -0.47 -0.01    +0.072 S  
DOCKED: ATOM     15  O   UNL     1       8.804  19.363  17.274 -0.18 +0.02    -0.150 OA 
DOCKED: ATOM     16  O   UNL     1       9.547  19.088  14.882 -0.31 +0.03    -0.150 OA 
DOCKED: BRANCH  14  17
DOCKED: ATOM     17  C   UNL     1      10.997  20.545  16.521 -0.26 -0.01    +0.109 A  
DOCKED: ATOM     18  C   UNL     1      11.244  20.880  17.857 -0.16 -0.00    +0.030 A  
DOCKED: ATOM     19  C   UNL     1      12.454  21.487  18.198 -0.17 -0.00    +0.022 A  
DOCKED: ATOM     20  C   UNL     1      13.409  21.734  17.210 -0.31 -0.00    +0.041 A  
DOCKED: ATOM     21 CL   UNL     1      14.889  22.504  17.629 -0.43 +0.01    -0.084 Cl 
DOCKED: ATOM     22  C   UNL     1      13.170  21.375  15.882 -0.34 -0.00    +0.022 A  
DOCKED: ATOM     23  C   UNL     1      11.958  20.778  15.532 -0.39 -0.00    +0.030 A  
DOCKED: ENDBRANCH  14  17
DOCKED: ENDBRANCH   1  14
DOCKED: TORSDOF 4
DOCKED: TER
DOCKED: ENDMDL
________________________________________________________________________________


    FINAL DOCKED STATE:
    ________________________


Run:   7 / 50
Time taken for this run:   0.000s

DOCKED: MODEL        7
DOCKED: USER    Run = 7
DOCKED: USER
DOCKED: USER    Estimated Free Energy of Binding    =  -4.52 kcal/mol  [=(1)+(2)+(3)-(4)]
DOCKED: USER
DOCKED: USER    (1) Final Intermolecular Energy     =  -5.72 kcal/mol
DOCKED: USER        vdW + Hbond + desolv Energy     =  -5.56 kcal/mol
DOCKED: USER        Electrostatic Energy            =  -0.16 kcal/mol
DOCKED: USER        Moving Ligand-Fixed Receptor    =  -5.72 kcal/mol
DOCKED: USER        Moving Ligand-Moving Receptor   =  +0.00 kcal/mol
DOCKED: USER    (2) Final Total Internal Energy     =  -1.49 kcal/mol
DOCKED: USER    (3) Torsional Free Energy           =  +1.19 kcal/mol
DOCKED: USER    (4) Unbound System's Energy         =  -1.49 kcal/mol
DOCKED: USER
DOCKED: USER
DOCKED: REMARK  Name = 
DOCKED: REMARK  5 active torsions:
DOCKED: REMARK  status: ('A' for Active; 'I' for Inactive)
DOCKED: REMARK    1  A    between atoms: C_1  and  C_2
DOCKED: REMARK    2  A    between atoms: N_4  and  C_5
DOCKED: REMARK    3  A    between atoms: C_8  and  N_9
DOCKED: REMARK    4  A    between atoms: N_9  and  S_10
DOCKED: REMARK    5  A    between atoms: S_10  and  C_13
DOCKED: REMARK                            x       y       z     vdW  Elec       q    Type
DOCKED: REMARK                         _______ _______ _______ _____ _____    ______ ____
DOCKED: USER                              x       y       z     vdW  Elec       q    Type
DOCKED: USER                           _______ _______ _______ _____ _____    ______ ____
DOCKED: ROOT
DOCKED: ATOM      1  N   UNL     1       8.798  21.142  15.721 -0.25 +0.04    -0.216 N  
DOCKED: ATOM      2  H   UNL     1       8.411  21.072  14.781 +0.03 -0.04    +0.174 HD 
DOCKED: ENDROOT
DOCKED: BRANCH   1   6
DOCKED: ATOM      3  C   UNL     1      10.156  24.953  16.941 -0.19 -0.01    +0.033 A  
DOCKED: ATOM      4  C   UNL     1       9.379  24.169  17.800 -0.16 -0.01    +0.025 A  
DOCKED: ATOM      5  C   UNL     1       8.919  22.911  17.400 -0.16 -0.01    +0.026 A  
DOCKED: ATOM      6  C   UNL     1       9.246  22.425  16.139 -0.29 -0.01    +0.048 A  
DOCKED: ATOM      7  C   UNL     1       9.984  23.214  15.259 -0.37 -0.00    +0.026 A  
DOCKED: ATOM      8  C   UNL     1      10.426  24.480  15.653 -0.29 -0.00    +0.025 A  
DOCKED: BRANCH   3  12
DOCKED: ATOM      9  C   UNL     1      12.247  27.908  17.993 -0.18 +0.00    +0.109 C  
DOCKED: ATOM     10  C   UNL     1      12.017  26.469  17.613 -0.14 +0.02    +0.214 C  
DOCKED: ATOM     11  O   UNL     1      12.948  25.670  17.590 -0.15 -0.04    -0.276 OA 
DOCKED: ATOM     12  N   UNL     1      10.694  26.206  17.304 -0.15 +0.12    -0.286 N  
DOCKED: ATOM     13  H   UNL     1      10.075  27.003  17.222 -0.20 -0.23    +0.155 HD 
DOCKED: ENDBRANCH   3  12
DOCKED: ENDBRANCH   1   6
DOCKED: BRANCH   1  14
DOCKED: ATOM     14  S   UNL     1       9.790  19.808  16.051 -0.50 -0.01    +0.072 S  
DOCKED: ATOM     15  O   UNL     1       9.214  19.140  17.200 -0.20 +0.02    -0.150 OA 
DOCKED: ATOM     16  O   UNL     1      10.036  19.094  14.818 -0.43 +0.03    -0.150 OA 
DOCKED: BRANCH  14  17
DOCKED: ATOM     17  C   UNL     1      11.295  20.578  16.586 -0.25 -0.01    +0.109 A  
DOCKED: ATOM     18  C   UNL     1      11.492  20.816  17.951 -0.16 -0.00    +0.030 A  
DOCKED: ATOM     19  C   UNL     1      12.626  21.514  18.367 -0.17 -0.00    +0.022 A  
DOCKED: ATOM     20  C   UNL     1      13.558  21.950  17.423 -0.29 -0.00    +0.041 A  
DOCKED: ATOM     21 CL   UNL     1      14.942  22.833  17.937 -0.38 +0.01    -0.084 Cl 
DOCKED: ATOM     22  C   UNL     1      13.372  21.689  16.064 -0.25 -0.00    +0.022 A  
DOCKED: ATOM     23  C   UNL     1      12.235  20.999  15.640 -0.42 -0.00    +0.030 A  
DOCKED: ENDBRANCH  14  17
DOCKED: ENDBRANCH   1  14
DOCKED: TORSDOF 4
DOCKED: TER
DOCKED: ENDMDL
________________________________________________________________________________


    FINAL DOCKED STATE:
    ________________________


Run:   8 / 50
Time taken for this run:   0.000s

DOCKED: MODEL        8
DOCKED: USER    Run = 8
DOCKED: USER
DOCKED: USER    Estimated Free Energy of Binding    =  -4.50 kcal/mol  [=(1)+(2)+(3)-(4)]
DOCKED: USER
DOCKED: USER    (1) Final Intermolecular Energy     =  -5.69 kcal/mol
DOCKED: USER        vdW + Hbond + desolv Energy     =  -5.54 kcal/mol
DOCKED: USER        Electrostatic Energy            =  -0.15 kcal/mol
DOCKED: USER        Moving Ligand-Fixed Receptor    =  -5.69 kcal/mol
DOCKED: USER        Moving Ligand-Moving Receptor   =  +0.00 kcal/mol
DOCKED: USER    (2) Final Total Internal Energy     =  -1.49 kcal/mol
DOCKED: USER    (3) Torsional Free Energy           =  +1.19 kcal/mol
DOCKED: USER    (4) Unbound System's Energy         =  -1.49 kcal/mol
DOCKED: USER
DOCKED: USER
DOCKED: REMARK  Name = 
DOCKED: REMARK  5 active torsions:
DOCKED: REMARK  status: ('A' for Active; 'I' for Inactive)
DOCKED: REMARK    1  A    between atoms: C_1  and  C_2
DOCKED: REMARK    2  A    between atoms: N_4  and  C_5
DOCKED: REMARK    3  A    between atoms: C_8  and  N_9
DOCKED: REMARK    4  A    between atoms: N_9  and  S_10
DOCKED: REMARK    5  A    between atoms: S_10  and  C_13
DOCKED: REMARK                            x       y       z     vdW  Elec       q    Type
DOCKED: REMARK                         _______ _______ _______ _____ _____    ______ ____
DOCKED: USER                              x       y       z     vdW  Elec       q    Type
DOCKED: USER                           _______ _______ _______ _____ _____    ______ ____
DOCKED: ROOT
DOCKED: ATOM      1  N   UNL     1       8.806  21.049  15.756 -0.24 +0.04    -0.216 N  
DOCKED: ATOM      2  H   UNL     1       8.356  20.982  14.844 +0.04 -0.04    +0.174 HD 
DOCKED: ENDROOT
DOCKED: BRANCH   1   6
DOCKED: ATOM      3  C   UNL     1      10.192  24.868  16.919 -0.21 -0.01    +0.033 A  
DOCKED: ATOM      4  C   UNL     1       9.449  24.083  17.807 -0.16 -0.01    +0.025 A  
DOCKED: ATOM      5  C   UNL     1       8.979  22.822  17.426 -0.15 -0.01    +0.026 A  
DOCKED: ATOM      6  C   UNL     1       9.264  22.335  16.155 -0.29 -0.01    +0.048 A  
DOCKED: ATOM      7  C   UNL     1       9.967  23.126  15.248 -0.34 -0.00    +0.026 A  
DOCKED: ATOM      8  C   UNL     1      10.418  24.394  15.624 -0.32 -0.00    +0.025 A  
DOCKED: BRANCH   3  12
DOCKED: ATOM      9  C   UNL     1      12.301  27.830  17.912 -0.18 +0.01    +0.109 C  
DOCKED: ATOM     10  C   UNL     1      12.063  26.387  17.555 -0.14 +0.02    +0.214 C  
DOCKED: ATOM     11  O   UNL     1      12.991  25.585  17.535 -0.15 -0.04    -0.276 OA 
DOCKED: ATOM     12  N   UNL     1      10.736  26.124  17.260 -0.16 +0.10    -0.286 N  
DOCKED: ATOM     13  H   UNL     1      10.120  26.923  17.173 -0.19 -0.21    +0.155 HD 
DOCKED: ENDBRANCH   3  12
DOCKED: ENDBRANCH   1   6
DOCKED: BRANCH   1  14
DOCKED: ATOM     14  S   UNL     1       9.839  19.728  16.002 -0.51 -0.01    +0.072 S  
DOCKED: ATOM     15  O   UNL     1       9.301  18.988  17.125 -0.22 +0.02    -0.150 OA 
DOCKED: ATOM     16  O   UNL     1      10.082  19.083  14.731 -0.40 +0.03    -0.150 OA 
DOCKED: BRANCH  14  17
DOCKED: ATOM     17  C   UNL     1      11.332  20.510  16.551 -0.24 -0.01    +0.109 A  
DOCKED: ATOM     18  C   UNL     1      11.529  20.719  17.920 -0.17 -0.00    +0.030 A  
DOCKED: ATOM     19  C   UNL     1      12.653  21.427  18.350 -0.17 -0.00    +0.022 A  
DOCKED: ATOM     20  C   UNL     1      13.575  21.900  17.414 -0.30 -0.00    +0.041 A  
DOCKED: ATOM     21 CL   UNL     1      14.945  22.794  17.945 -0.39 +0.01    -0.084 Cl 
DOCKED: ATOM     22  C   UNL     1      13.389  21.668  16.050 -0.25 -0.00    +0.022 A  
DOCKED: ATOM     23  C   UNL     1      12.262  20.969  15.613 -0.42 -0.00    +0.030 A  
DOCKED: ENDBRANCH  14  17
DOCKED: ENDBRANCH   1  14
DOCKED: TORSDOF 4
DOCKED: TER
DOCKED: ENDMDL
________________________________________________________________________________


    FINAL DOCKED STATE:
    ________________________


Run:   9 / 50
Time taken for this run:   0.000s

DOCKED: MODEL        9
DOCKED: USER    Run = 9
DOCKED: USER
DOCKED: USER    Estimated Free Energy of Binding    =  -4.46 kcal/mol  [=(1)+(2)+(3)-(4)]
DOCKED: USER
DOCKED: USER    (1) Final Intermolecular Energy     =  -5.65 kcal/mol
DOCKED: USER        vdW + Hbond + desolv Energy     =  -5.55 kcal/mol
DOCKED: USER        Electrostatic Energy            =  -0.10 kcal/mol
DOCKED: USER        Moving Ligand-Fixed Receptor    =  -5.65 kcal/mol
DOCKED: USER        Moving Ligand-Moving Receptor   =  +0.00 kcal/mol
DOCKED: USER    (2) Final Total Internal Energy     =  -0.87 kcal/mol
DOCKED: USER    (3) Torsional Free Energy           =  +1.19 kcal/mol
DOCKED: USER    (4) Unbound System's Energy         =  -0.87 kcal/mol
DOCKED: USER
DOCKED: USER
DOCKED: REMARK  Name = 
DOCKED: REMARK  5 active torsions:
DOCKED: REMARK  status: ('A' for Active; 'I' for Inactive)
DOCKED: REMARK    1  A    between atoms: C_1  and  C_2
DOCKED: REMARK    2  A    between atoms: N_4  and  C_5
DOCKED: REMARK    3  A    between atoms: C_8  and  N_9
DOCKED: REMARK    4  A    between atoms: N_9  and  S_10
DOCKED: REMARK    5  A    between atoms: S_10  and  C_13
DOCKED: REMARK                            x       y       z     vdW  Elec       q    Type
DOCKED: REMARK                         _______ _______ _______ _____ _____    ______ ____
DOCKED: USER                              x       y       z     vdW  Elec       q    Type
DOCKED: USER                           _______ _______ _______ _____ _____    ______ ____
DOCKED: ROOT
DOCKED: ATOM      1  N   UNL     1      11.798  24.870  18.604 -0.06 +0.04    -0.216 N  
DOCKED: ATOM      2  H   UNL     1      11.499  25.385  19.431 +0.03 -0.05    +0.174 HD 
DOCKED: ENDROOT
DOCKED: BRANCH   1   6
DOCKED: ATOM      3  C   UNL     1      15.859  25.229  17.493 -0.18 +0.00    +0.033 A  
DOCKED: ATOM      4  C   UNL     1      15.026  26.352  17.506 -0.17 +0.00    +0.025 A  
DOCKED: ATOM      5  C   UNL     1      13.679  26.239  17.864 -0.16 +0.00    +0.026 A  
DOCKED: ATOM      6  C   UNL     1      13.163  25.000  18.224 -0.13 -0.00    +0.048 A  
DOCKED: ATOM      7  C   UNL     1      13.973  23.867  18.174 -0.15 -0.00    +0.026 A  
DOCKED: ATOM      8  C   UNL     1      15.313  23.979  17.796 -0.21 -0.00    +0.025 A  
DOCKED: BRANCH   3  12
DOCKED: ATOM      9  C   UNL     1      19.309  25.792  16.081 -0.22 -0.01    +0.109 C  
DOCKED: ATOM     10  C   UNL     1      17.815  25.969  16.136 -0.24 +0.01    +0.214 C  
DOCKED: ATOM     11  O   UNL     1      17.236  26.667  15.309 -0.72 -0.11    -0.276 OA 
DOCKED: ATOM     12  N   UNL     1      17.237  25.286  17.192 -0.14 +0.01    -0.286 N  
DOCKED: ATOM     13  H   UNL     1      17.865  24.880  17.874 +0.05 -0.02    +0.155 HD 
DOCKED: ENDBRANCH   3  12
DOCKED: ENDBRANCH   1   6
DOCKED: BRANCH   1  14
DOCKED: ATOM     14  S   UNL     1      10.622  24.971  17.388 -0.30 -0.02    +0.072 S  
DOCKED: ATOM     15  O   UNL     1       9.350  25.138  18.059 -0.17 +0.10    -0.150 OA 
DOCKED: ATOM     16  O   UNL     1      11.067  25.914  16.386 -0.51 -0.05    -0.150 OA 
DOCKED: BRANCH  14  17
DOCKED: ATOM     17  C   UNL     1      10.647  23.338  16.700 -0.21 -0.01    +0.109 A  
DOCKED: ATOM     18  C   UNL     1       9.519  22.521  16.840 -0.20 -0.01    +0.030 A  
DOCKED: ATOM     19  C   UNL     1       9.570  21.200  16.392 -0.27 -0.00    +0.022 A  
DOCKED: ATOM     20  C   UNL     1      10.735  20.715  15.794 -0.29 -0.00    +0.041 A  
DOCKED: ATOM     21 CL   UNL     1      10.803  19.080  15.266 -0.64 +0.01    -0.084 Cl 
DOCKED: ATOM     22  C   UNL     1      11.850  21.540  15.632 -0.38 -0.00    +0.022 A  
DOCKED: ATOM     23  C   UNL     1      11.809  22.859  16.087 -0.28 +0.00    +0.030 A  
DOCKED: ENDBRANCH  14  17
DOCKED: ENDBRANCH   1  14
DOCKED: TORSDOF 4
DOCKED: TER
DOCKED: ENDMDL
________________________________________________________________________________


    FINAL DOCKED STATE:
    ________________________


Run:   10 / 50
Time taken for this run:   0.000s

DOCKED: MODEL        10
DOCKED: USER    Run = 10
DOCKED: USER
DOCKED: USER    Estimated Free Energy of Binding    =  -4.57 kcal/mol  [=(1)+(2)+(3)-(4)]
DOCKED: USER
DOCKED: USER    (1) Final Intermolecular Energy     =  -5.77 kcal/mol
DOCKED: USER        vdW + Hbond + desolv Energy     =  -5.62 kcal/mol
DOCKED: USER        Electrostatic Energy            =  -0.15 kcal/mol
DOCKED: USER        Moving Ligand-Fixed Receptor    =  -5.77 kcal/mol
DOCKED: USER        Moving Ligand-Moving Receptor   =  +0.00 kcal/mol
DOCKED: USER    (2) Final Total Internal Energy     =  -1.49 kcal/mol
DOCKED: USER    (3) Torsional Free Energy           =  +1.19 kcal/mol
DOCKED: USER    (4) Unbound System's Energy         =  -1.49 kcal/mol
DOCKED: USER
DOCKED: USER
DOCKED: REMARK  Name = 
DOCKED: REMARK  5 active torsions:
DOCKED: REMARK  status: ('A' for Active; 'I' for Inactive)
DOCKED: REMARK    1  A    between atoms: C_1  and  C_2
DOCKED: REMARK    2  A    between atoms: N_4  and  C_5
DOCKED: REMARK    3  A    between atoms: C_8  and  N_9
DOCKED: REMARK    4  A    between atoms: N_9  and  S_10
DOCKED: REMARK    5  A    between atoms: S_10  and  C_13
DOCKED: REMARK                            x       y       z     vdW  Elec       q    Type
DOCKED: REMARK                         _______ _______ _______ _____ _____    ______ ____
DOCKED: USER                              x       y       z     vdW  Elec       q    Type
DOCKED: USER                           _______ _______ _______ _____ _____    ______ ____
DOCKED: ROOT
DOCKED: ATOM      1  N   UNL     1       8.573  21.329  15.644 -0.26 +0.05    -0.216 N  
DOCKED: ATOM      2  H   UNL     1       8.246  21.273  14.680 -0.06 -0.05    +0.174 HD 
DOCKED: ENDROOT
DOCKED: BRANCH   1   6
DOCKED: ATOM      3  C   UNL     1      10.173  25.035  16.895 -0.17 -0.01    +0.033 A  
DOCKED: ATOM      4  C   UNL     1       9.315  24.315  17.732 -0.17 -0.01    +0.025 A  
DOCKED: ATOM      5  C   UNL     1       8.775  23.092  17.322 -0.17 -0.01    +0.026 A  
DOCKED: ATOM      6  C   UNL     1       9.103  22.578  16.072 -0.30 -0.01    +0.048 A  
DOCKED: ATOM      7  C   UNL     1       9.922  23.307  15.213 -0.36 -0.00    +0.026 A  
DOCKED: ATOM      8  C   UNL     1      10.445  24.539  15.617 -0.26 +0.00    +0.025 A  
DOCKED: BRANCH   3  12
DOCKED: ATOM      9  C   UNL     1      12.451  27.839  17.972 -0.17 +0.01    +0.109 C  
DOCKED: ATOM     10  C   UNL     1      12.129  26.422  17.575 -0.13 +0.03    +0.214 C  
DOCKED: ATOM     11  O   UNL     1      13.008  25.567  17.535 -0.15 -0.04    -0.276 OA 
DOCKED: ATOM     12  N   UNL     1      10.790  26.247  17.271 -0.17 +0.10    -0.286 N  
DOCKED: ATOM     13  H   UNL     1      10.222  27.083  17.204 -0.22 -0.21    +0.155 HD 
DOCKED: ENDBRANCH   3  12
DOCKED: ENDBRANCH   1   6
DOCKED: BRANCH   1  14
DOCKED: ATOM     14  S   UNL     1       9.422  19.923  16.062 -0.47 -0.01    +0.072 S  
DOCKED: ATOM     15  O   UNL     1       8.802  19.409  17.265 -0.18 +0.02    -0.150 OA 
DOCKED: ATOM     16  O   UNL     1       9.562  19.096  14.883 -0.32 +0.03    -0.150 OA 
DOCKED: BRANCH  14  17
DOCKED: ATOM     17  C   UNL     1      11.013  20.560  16.516 -0.26 -0.01    +0.109 A  
DOCKED: ATOM     18  C   UNL     1      11.261  20.881  17.855 -0.16 -0.00    +0.030 A  
DOCKED: ATOM     19  C   UNL     1      12.474  21.480  18.202 -0.17 -0.00    +0.022 A  
DOCKED: ATOM     20  C   UNL     1      13.429  21.734  17.216 -0.31 -0.00    +0.041 A  
DOCKED: ATOM     21 CL   UNL     1      14.911  22.495  17.642 -0.43 +0.01    -0.084 Cl 
DOCKED: ATOM     22  C   UNL     1      13.189  21.389  15.884 -0.33 -0.00    +0.022 A  
DOCKED: ATOM     23  C   UNL     1      11.974  20.799  15.529 -0.39 -0.00    +0.030 A  
DOCKED: ENDBRANCH  14  17
DOCKED: ENDBRANCH   1  14
DOCKED: TORSDOF 4
DOCKED: TER
DOCKED: ENDMDL
________________________________________________________________________________


    FINAL DOCKED STATE:
    ________________________


Run:   11 / 50
Time taken for this run:   0.000s

DOCKED: MODEL        11
DOCKED: USER    Run = 11
DOCKED: USER
DOCKED: USER    Estimated Free Energy of Binding    =  -4.57 kcal/mol  [=(1)+(2)+(3)-(4)]
DOCKED: USER
DOCKED: USER    (1) Final Intermolecular Energy     =  -5.76 kcal/mol
DOCKED: USER        vdW + Hbond + desolv Energy     =  -5.61 kcal/mol
DOCKED: USER        Electrostatic Energy            =  -0.15 kcal/mol
DOCKED: USER        Moving Ligand-Fixed Receptor    =  -5.76 kcal/mol
DOCKED: USER        Moving Ligand-Moving Receptor   =  +0.00 kcal/mol
DOCKED: USER    (2) Final Total Internal Energy     =  -1.47 kcal/mol
DOCKED: USER    (3) Torsional Free Energy           =  +1.19 kcal/mol
DOCKED: USER    (4) Unbound System's Energy         =  -1.47 kcal/mol
DOCKED: USER
DOCKED: USER
DOCKED: REMARK  Name = 
DOCKED: REMARK  5 active torsions:
DOCKED: REMARK  status: ('A' for Active; 'I' for Inactive)
DOCKED: REMARK    1  A    between atoms: C_1  and  C_2
DOCKED: REMARK    2  A    between atoms: N_4  and  C_5
DOCKED: REMARK    3  A    between atoms: C_8  and  N_9
DOCKED: REMARK    4  A    between atoms: N_9  and  S_10
DOCKED: REMARK    5  A    between atoms: S_10  and  C_13
DOCKED: REMARK                            x       y       z     vdW  Elec       q    Type
DOCKED: REMARK                         _______ _______ _______ _____ _____    ______ ____
DOCKED: USER                              x       y       z     vdW  Elec       q    Type
DOCKED: USER                           _______ _______ _______ _____ _____    ______ ____
DOCKED: ROOT
DOCKED: ATOM      1  N   UNL     1       8.639  21.260  15.690 -0.25 +0.04    -0.216 N  
DOCKED: ATOM      2  H   UNL     1       8.280  21.195  14.738 -0.02 -0.04    +0.174 HD 
DOCKED: ENDROOT
DOCKED: BRANCH   1   6
DOCKED: ATOM      3  C   UNL     1      10.175  25.008  16.894 -0.18 -0.01    +0.033 A  
DOCKED: ATOM      4  C   UNL     1       9.310  24.295  17.730 -0.17 -0.01    +0.025 A  
DOCKED: ATOM      5  C   UNL     1       8.791  23.058  17.335 -0.17 -0.01    +0.026 A  
DOCKED: ATOM      6  C   UNL     1       9.147  22.523  16.102 -0.30 -0.01    +0.048 A  
DOCKED: ATOM      7  C   UNL     1       9.974  23.244  15.243 -0.37 -0.00    +0.026 A  
DOCKED: ATOM      8  C   UNL     1      10.476  24.489  15.631 -0.27 +0.00    +0.025 A  
DOCKED: BRANCH   3  12
DOCKED: ATOM      9  C   UNL     1      12.409  27.862  17.931 -0.18 +0.01    +0.109 C  
DOCKED: ATOM     10  C   UNL     1      12.110  26.437  17.545 -0.13 +0.03    +0.214 C  
DOCKED: ATOM     11  O   UNL     1      13.005  25.599  17.501 -0.15 -0.05    -0.276 OA 
DOCKED: ATOM     12  N   UNL     1      10.772  26.234  17.256 -0.16 +0.10    -0.286 N  
DOCKED: ATOM     13  H   UNL     1      10.187  27.058  17.190 -0.21 -0.21    +0.155 HD 
DOCKED: ENDBRANCH   3  12
DOCKED: ENDBRANCH   1   6
DOCKED: BRANCH   1  14
DOCKED: ATOM     14  S   UNL     1       9.541  19.878  16.075 -0.48 -0.01    +0.072 S  
DOCKED: ATOM     15  O   UNL     1       8.950  19.321  17.274 -0.18 +0.02    -0.150 OA 
DOCKED: ATOM     16  O   UNL     1       9.701  19.077  14.881 -0.37 +0.03    -0.150 OA 
DOCKED: BRANCH  14  17
DOCKED: ATOM     17  C   UNL     1      11.112  20.564  16.528 -0.26 -0.01    +0.109 A  
DOCKED: ATOM     18  C   UNL     1      11.327  20.959  17.853 -0.16 -0.00    +0.030 A  
DOCKED: ATOM     19  C   UNL     1      12.522  21.594  18.193 -0.17 -0.00    +0.022 A  
DOCKED: ATOM     20  C   UNL     1      13.495  21.812  17.214 -0.31 -0.00    +0.041 A  
DOCKED: ATOM     21 CL   UNL     1      14.956  22.618  17.630 -0.42 +0.01    -0.084 Cl 
DOCKED: ATOM     22  C   UNL     1      13.288  21.394  15.898 -0.30 -0.00    +0.022 A  
DOCKED: ATOM     23  C   UNL     1      12.090  20.767  15.550 -0.38 -0.00    +0.030 A  
DOCKED: ENDBRANCH  14  17
DOCKED: ENDBRANCH   1  14
DOCKED: TORSDOF 4
DOCKED: TER
DOCKED: ENDMDL
________________________________________________________________________________


    FINAL DOCKED STATE:
    ________________________


Run:   12 / 50
Time taken for this run:   0.000s

DOCKED: MODEL        12
DOCKED: USER    Run = 12
DOCKED: USER
DOCKED: USER    Estimated Free Energy of Binding    =  -4.22 kcal/mol  [=(1)+(2)+(3)-(4)]
DOCKED: USER
DOCKED: USER    (1) Final Intermolecular Energy     =  -5.42 kcal/mol
DOCKED: USER        vdW + Hbond + desolv Energy     =  -5.32 kcal/mol
DOCKED: USER        Electrostatic Energy            =  -0.09 kcal/mol
DOCKED: USER        Moving Ligand-Fixed Receptor    =  -5.42 kcal/mol
DOCKED: USER        Moving Ligand-Moving Receptor   =  +0.00 kcal/mol
DOCKED: USER    (2) Final Total Internal Energy     =  -1.39 kcal/mol
DOCKED: USER    (3) Torsional Free Energy           =  +1.19 kcal/mol
DOCKED: USER    (4) Unbound System's Energy         =  -1.39 kcal/mol
DOCKED: USER
DOCKED: USER
DOCKED: REMARK  Name = 
DOCKED: REMARK  5 active torsions:
DOCKED: REMARK  status: ('A' for Active; 'I' for Inactive)
DOCKED: REMARK    1  A    between atoms: C_1  and  C_2
DOCKED: REMARK    2  A    between atoms: N_4  and  C_5
DOCKED: REMARK    3  A    between atoms: C_8  and  N_9
DOCKED: REMARK    4  A    between atoms: N_9  and  S_10
DOCKED: REMARK    5  A    between atoms: S_10  and  C_13
DOCKED: REMARK                            x       y       z     vdW  Elec       q    Type
DOCKED: REMARK                         _______ _______ _______ _____ _____    ______ ____
DOCKED: USER                              x       y       z     vdW  Elec       q    Type
DOCKED: USER                           _______ _______ _______ _____ _____    ______ ____
DOCKED: ROOT
DOCKED: ATOM      1  N   UNL     1       9.763  19.891  16.459 -0.22 +0.03    -0.216 N  
DOCKED: ATOM      2  H   UNL     1       9.571  19.005  16.926 +0.07 -0.02    +0.174 HD 
DOCKED: ENDROOT
DOCKED: BRANCH   1   6
DOCKED: ATOM      3  C   UNL     1      13.612  21.547  17.004 -0.29 -0.00    +0.033 A  
DOCKED: ATOM      4  C   UNL     1      12.815  21.229  18.108 -0.18 -0.00    +0.025 A  
DOCKED: ATOM      5  C   UNL     1      11.536  20.689  17.935 -0.17 -0.00    +0.026 A  
DOCKED: ATOM      6  C   UNL     1      11.055  20.453  16.653 -0.27 -0.01    +0.048 A  
DOCKED: ATOM      7  C   UNL     1      11.823  20.805  15.545 -0.38 -0.00    +0.026 A  
DOCKED: ATOM      8  C   UNL     1      13.092  21.363  15.719 -0.34 -0.00    +0.025 A  
DOCKED: BRANCH   3  12
DOCKED: ATOM      9  C   UNL     1      16.778  23.537  17.478 -0.29 -0.01    +0.109 C  
DOCKED: ATOM     10  C   UNL     1      15.288  23.322  17.507 -0.22 -0.01    +0.214 C  
DOCKED: ATOM     11  O   UNL     1      14.532  24.220  17.863 -0.13 -0.00    -0.276 OA 
DOCKED: ATOM     12  N   UNL     1      14.927  22.045  17.111 -0.24 +0.07    -0.286 N  
DOCKED: ATOM     13  H   UNL     1      15.676  21.374  16.995 -0.37 -0.12    +0.155 HD 
DOCKED: ENDBRANCH   3  12
DOCKED: ENDBRANCH   1   6
DOCKED: BRANCH   1  14
DOCKED: ATOM     14  S   UNL     1       8.423  20.922  16.577 -0.32 -0.01    +0.072 S  
DOCKED: ATOM     15  O   UNL     1       7.809  20.950  15.266 -0.28 +0.04    -0.150 OA 
DOCKED: ATOM     16  O   UNL     1       7.659  20.562  17.751 -0.08 +0.03    -0.150 OA 
DOCKED: BRANCH  14  17
DOCKED: ATOM     17  C   UNL     1       9.182  22.502  16.840 -0.18 -0.03    +0.109 A  
DOCKED: ATOM     18  C   UNL     1       9.707  23.198  15.745 -0.36 -0.00    +0.030 A  
DOCKED: ATOM     19  C   UNL     1      10.397  24.392  15.959 -0.32 -0.00    +0.022 A  
DOCKED: ATOM     20  C   UNL     1      10.540  24.887  17.257 -0.23 -0.01    +0.041 A  
DOCKED: ATOM     21 CL   UNL     1      11.413  26.345  17.520 -0.31 +0.01    -0.084 Cl 
DOCKED: ATOM     22  C   UNL     1       9.993  24.204  18.345 -0.12 -0.01    +0.022 A  
DOCKED: ATOM     23  C   UNL     1       9.311  23.004  18.138 -0.09 -0.01    +0.030 A  
DOCKED: ENDBRANCH  14  17
DOCKED: ENDBRANCH   1  14
DOCKED: TORSDOF 4
DOCKED: TER
DOCKED: ENDMDL
________________________________________________________________________________


    FINAL DOCKED STATE:
    ________________________


Run:   13 / 50
Time taken for this run:   0.000s

DOCKED: MODEL        13
DOCKED: USER    Run = 13
DOCKED: USER
DOCKED: USER    Estimated Free Energy of Binding    =  -4.50 kcal/mol  [=(1)+(2)+(3)-(4)]
DOCKED: USER
DOCKED: USER    (1) Final Intermolecular Energy     =  -5.69 kcal/mol
DOCKED: USER        vdW + Hbond + desolv Energy     =  -5.54 kcal/mol
DOCKED: USER        Electrostatic Energy            =  -0.15 kcal/mol
DOCKED: USER        Moving Ligand-Fixed Receptor    =  -5.69 kcal/mol
DOCKED: USER        Moving Ligand-Moving Receptor   =  +0.00 kcal/mol
DOCKED: USER    (2) Final Total Internal Energy     =  -1.49 kcal/mol
DOCKED: USER    (3) Torsional Free Energy           =  +1.19 kcal/mol
DOCKED: USER    (4) Unbound System's Energy         =  -1.49 kcal/mol
DOCKED: USER
DOCKED: USER
DOCKED: REMARK  Name = 
DOCKED: REMARK  5 active torsions:
DOCKED: REMARK  status: ('A' for Active; 'I' for Inactive)
DOCKED: REMARK    1  A    between atoms: C_1  and  C_2
DOCKED: REMARK    2  A    between atoms: N_4  and  C_5
DOCKED: REMARK    3  A    between atoms: C_8  and  N_9
DOCKED: REMARK    4  A    between atoms: N_9  and  S_10
DOCKED: REMARK    5  A    between atoms: S_10  and  C_13
DOCKED: REMARK                            x       y       z     vdW  Elec       q    Type
DOCKED: REMARK                         _______ _______ _______ _____ _____    ______ ____
DOCKED: USER                              x       y       z     vdW  Elec       q    Type
DOCKED: USER                           _______ _______ _______ _____ _____    ______ ____
DOCKED: ROOT
DOCKED: ATOM      1  N   UNL     1       8.816  21.084  15.736 -0.24 +0.04    -0.216 N  
DOCKED: ATOM      2  H   UNL     1       8.391  21.023  14.811 +0.03 -0.04    +0.174 HD 
DOCKED: ENDROOT
DOCKED: BRANCH   1   6
DOCKED: ATOM      3  C   UNL     1      10.186  24.891  16.952 -0.21 -0.01    +0.033 A  
DOCKED: ATOM      4  C   UNL     1       9.426  24.101  17.820 -0.16 -0.01    +0.025 A  
DOCKED: ATOM      5  C   UNL     1       8.962  22.844  17.421 -0.15 -0.01    +0.026 A  
DOCKED: ATOM      6  C   UNL     1       9.268  22.366  16.152 -0.29 -0.01    +0.048 A  
DOCKED: ATOM      7  C   UNL     1       9.988  23.162  15.264 -0.35 -0.00    +0.026 A  
DOCKED: ATOM      8  C   UNL     1      10.434  24.427  15.657 -0.31 -0.00    +0.025 A  
DOCKED: BRANCH   3  12
DOCKED: ATOM      9  C   UNL     1      12.285  27.845  17.989 -0.18 +0.00    +0.109 C  
DOCKED: ATOM     10  C   UNL     1      12.052  26.407  17.608 -0.14 +0.02    +0.214 C  
DOCKED: ATOM     11  O   UNL     1      12.984  25.610  17.574 -0.15 -0.04    -0.276 OA 
DOCKED: ATOM     12  N   UNL     1      10.726  26.144  17.312 -0.16 +0.11    -0.286 N  
DOCKED: ATOM     13  H   UNL     1      10.106  26.941  17.239 -0.19 -0.21    +0.155 HD 
DOCKED: ENDBRANCH   3  12
DOCKED: ENDBRANCH   1   6
DOCKED: BRANCH   1  14
DOCKED: ATOM     14  S   UNL     1       9.834  19.756  16.006 -0.51 -0.01    +0.072 S  
DOCKED: ATOM     15  O   UNL     1       9.272  19.026  17.122 -0.22 +0.02    -0.150 OA 
DOCKED: ATOM     16  O   UNL     1      10.094  19.103  14.741 -0.40 +0.03    -0.150 OA 
DOCKED: BRANCH  14  17
DOCKED: ATOM     17  C   UNL     1      11.324  20.531  16.575 -0.24 -0.01    +0.109 A  
DOCKED: ATOM     18  C   UNL     1      11.507  20.730  17.948 -0.17 -0.00    +0.030 A  
DOCKED: ATOM     19  C   UNL     1      12.628  21.432  18.394 -0.17 -0.00    +0.022 A  
DOCKED: ATOM     20  C   UNL     1      13.561  21.909  17.471 -0.29 -0.00    +0.041 A  
DOCKED: ATOM     21 CL   UNL     1      14.928  22.795  18.023 -0.38 +0.01    -0.084 Cl 
DOCKED: ATOM     22  C   UNL     1      13.389  21.686  16.104 -0.26 -0.00    +0.022 A  
DOCKED: ATOM     23  C   UNL     1      12.264  20.994  15.650 -0.42 -0.00    +0.030 A  
DOCKED: ENDBRANCH  14  17
DOCKED: ENDBRANCH   1  14
DOCKED: TORSDOF 4
DOCKED: TER
DOCKED: ENDMDL
________________________________________________________________________________


    FINAL DOCKED STATE:
    ________________________


Run:   14 / 50
Time taken for this run:   0.000s

DOCKED: MODEL        14
DOCKED: USER    Run = 14
DOCKED: USER
DOCKED: USER    Estimated Free Energy of Binding    =  -4.57 kcal/mol  [=(1)+(2)+(3)-(4)]
DOCKED: USER
DOCKED: USER    (1) Final Intermolecular Energy     =  -5.77 kcal/mol
DOCKED: USER        vdW + Hbond + desolv Energy     =  -5.63 kcal/mol
DOCKED: USER        Electrostatic Energy            =  -0.14 kcal/mol
DOCKED: USER        Moving Ligand-Fixed Receptor    =  -5.77 kcal/mol
DOCKED: USER        Moving Ligand-Moving Receptor   =  +0.00 kcal/mol
DOCKED: USER    (2) Final Total Internal Energy     =  -1.48 kcal/mol
DOCKED: USER    (3) Torsional Free Energy           =  +1.19 kcal/mol
DOCKED: USER    (4) Unbound System's Energy         =  -1.48 kcal/mol
DOCKED: USER
DOCKED: USER
DOCKED: REMARK  Name = 
DOCKED: REMARK  5 active torsions:
DOCKED: REMARK  status: ('A' for Active; 'I' for Inactive)
DOCKED: REMARK    1  A    between atoms: C_1  and  C_2
DOCKED: REMARK    2  A    between atoms: N_4  and  C_5
DOCKED: REMARK    3  A    between atoms: C_8  and  N_9
DOCKED: REMARK    4  A    between atoms: N_9  and  S_10
DOCKED: REMARK    5  A    between atoms: S_10  and  C_13
DOCKED: REMARK                            x       y       z     vdW  Elec       q    Type
DOCKED: REMARK                         _______ _______ _______ _____ _____    ______ ____
DOCKED: USER                              x       y       z     vdW  Elec       q    Type
DOCKED: USER                           _______ _______ _______ _____ _____    ______ ____
DOCKED: ROOT
DOCKED: ATOM      1  N   UNL     1       8.596  21.356  15.629 -0.26 +0.05    -0.216 N  
DOCKED: ATOM      2  H   UNL     1       8.288  21.301  14.659 -0.06 -0.04    +0.174 HD 
DOCKED: ENDROOT
DOCKED: BRANCH   1   6
DOCKED: ATOM      3  C   UNL     1      10.183  25.058  16.910 -0.17 -0.01    +0.033 A  
DOCKED: ATOM      4  C   UNL     1       9.300  24.345  17.727 -0.17 -0.01    +0.025 A  
DOCKED: ATOM      5  C   UNL     1       8.764  23.124  17.306 -0.18 -0.01    +0.026 A  
DOCKED: ATOM      6  C   UNL     1       9.121  22.604  16.067 -0.30 -0.01    +0.048 A  
DOCKED: ATOM      7  C   UNL     1       9.967  23.326  15.227 -0.37 -0.00    +0.026 A  
DOCKED: ATOM      8  C   UNL     1      10.486  24.555  15.641 -0.24 +0.00    +0.025 A  
DOCKED: BRANCH   3  12
DOCKED: ATOM      9  C   UNL     1      12.428  27.841  18.101 -0.17 +0.00    +0.109 C  
DOCKED: ATOM     10  C   UNL     1      12.103  26.419  17.731 -0.15 +0.01    +0.214 C  
DOCKED: ATOM     11  O   UNL     1      12.954  25.539  17.817 -0.13 -0.02    -0.276 OA 
DOCKED: ATOM     12  N   UNL     1      10.797  26.267  17.298 -0.17 +0.10    -0.286 N  
DOCKED: ATOM     13  H   UNL     1      10.266  27.115  17.139 -0.23 -0.20    +0.155 HD 
DOCKED: ENDBRANCH   3  12
DOCKED: ENDBRANCH   1   6
DOCKED: BRANCH   1  14
DOCKED: ATOM     14  S   UNL     1       9.431  19.947  16.064 -0.47 -0.01    +0.072 S  
DOCKED: ATOM     15  O   UNL     1       8.782  19.433  17.252 -0.18 +0.02    -0.150 OA 
DOCKED: ATOM     16  O   UNL     1       9.598  19.122  14.888 -0.35 +0.03    -0.150 OA 
DOCKED: BRANCH  14  17
DOCKED: ATOM     17  C   UNL     1      11.013  20.580  16.557 -0.25 -0.01    +0.109 A  
DOCKED: ATOM     18  C   UNL     1      11.238  20.877  17.906 -0.16 -0.00    +0.030 A  
DOCKED: ATOM     19  C   UNL     1      12.443  21.472  18.283 -0.17 -0.00    +0.022 A  
DOCKED: ATOM     20  C   UNL     1      13.414  21.747  17.318 -0.30 -0.00    +0.041 A  
DOCKED: ATOM     21 CL   UNL     1      14.887  22.504  17.783 -0.42 +0.01    -0.084 Cl 
DOCKED: ATOM     22  C   UNL     1      13.196  21.426  15.977 -0.33 -0.00    +0.022 A  
DOCKED: ATOM     23  C   UNL     1      11.989  20.840  15.591 -0.40 -0.00    +0.030 A  
DOCKED: ENDBRANCH  14  17
DOCKED: ENDBRANCH   1  14
DOCKED: TORSDOF 4
DOCKED: TER
DOCKED: ENDMDL
________________________________________________________________________________


    FINAL DOCKED STATE:
    ________________________


Run:   15 / 50
Time taken for this run:   0.000s

DOCKED: MODEL        15
DOCKED: USER    Run = 15
DOCKED: USER
DOCKED: USER    Estimated Free Energy of Binding    =  -4.51 kcal/mol  [=(1)+(2)+(3)-(4)]
DOCKED: USER
DOCKED: USER    (1) Final Intermolecular Energy     =  -5.70 kcal/mol
DOCKED: USER        vdW + Hbond + desolv Energy     =  -5.58 kcal/mol
DOCKED: USER        Electrostatic Energy            =  -0.12 kcal/mol
DOCKED: USER        Moving Ligand-Fixed Receptor    =  -5.70 kcal/mol
DOCKED: USER        Moving Ligand-Moving Receptor   =  +0.00 kcal/mol
DOCKED: USER    (2) Final Total Internal Energy     =  -1.49 kcal/mol
DOCKED: USER    (3) Torsional Free Energy           =  +1.19 kcal/mol
DOCKED: USER    (4) Unbound System's Energy         =  -1.49 kcal/mol
DOCKED: USER
DOCKED: USER
DOCKED: REMARK  Name = 
DOCKED: REMARK  5 active torsions:
DOCKED: REMARK  status: ('A' for Active; 'I' for Inactive)
DOCKED: REMARK    1  A    between atoms: C_1  and  C_2
DOCKED: REMARK    2  A    between atoms: N_4  and  C_5
DOCKED: REMARK    3  A    between atoms: C_8  and  N_9
DOCKED: REMARK    4  A    between atoms: N_9  and  S_10
DOCKED: REMARK    5  A    between atoms: S_10  and  C_13
DOCKED: REMARK                            x       y       z     vdW  Elec       q    Type
DOCKED: REMARK                         _______ _______ _______ _____ _____    ______ ____
DOCKED: USER                              x       y       z     vdW  Elec       q    Type
DOCKED: USER                           _______ _______ _______ _____ _____    ______ ____
DOCKED: ROOT
DOCKED: ATOM      1  N   UNL     1       8.618  21.210  15.832 -0.24 +0.04    -0.216 N  
DOCKED: ATOM      2  H   UNL     1       8.168  21.146  14.920 +0.00 -0.04    +0.174 HD 
DOCKED: ENDROOT
DOCKED: BRANCH   1   6
DOCKED: ATOM      3  C   UNL     1      10.222  24.971  16.900 -0.20 -0.01    +0.033 A  
DOCKED: ATOM      4  C   UNL     1       9.443  24.249  17.809 -0.16 -0.01    +0.025 A  
DOCKED: ATOM      5  C   UNL     1       8.902  23.008  17.460 -0.15 -0.01    +0.026 A  
DOCKED: ATOM      6  C   UNL     1       9.149  22.478  16.199 -0.29 -0.01    +0.048 A  
DOCKED: ATOM      7  C   UNL     1       9.888  23.207  15.270 -0.36 -0.00    +0.026 A  
DOCKED: ATOM      8  C   UNL     1      10.412  24.456  15.614 -0.29 -0.00    +0.025 A  
DOCKED: BRANCH   3  12
DOCKED: ATOM      9  C   UNL     1      12.478  27.823  17.891 -0.18 +0.01    +0.109 C  
DOCKED: ATOM     10  C   UNL     1      12.152  26.381  17.606 -0.13 +0.02    +0.214 C  
DOCKED: ATOM     11  O   UNL     1      13.009  25.510  17.721 -0.14 -0.03    -0.276 OA 
DOCKED: ATOM     12  N   UNL     1      10.838  26.202  17.208 -0.17 +0.08    -0.286 N  
DOCKED: ATOM     13  H   UNL     1      10.300  27.038  17.015 -0.23 -0.18    +0.155 HD 
DOCKED: ENDBRANCH   3  12
DOCKED: ENDBRANCH   1   6
DOCKED: BRANCH   1  14
DOCKED: ATOM     14  S   UNL     1       9.569  19.837  16.119 -0.48 -0.01    +0.072 S  
DOCKED: ATOM     15  O   UNL     1       9.011  19.186  17.286 -0.19 +0.02    -0.150 OA 
DOCKED: ATOM     16  O   UNL     1       9.740  19.121  14.874 -0.38 +0.03    -0.150 OA 
DOCKED: BRANCH  14  17
DOCKED: ATOM     17  C   UNL     1      11.122  20.545  16.599 -0.25 -0.01    +0.109 A  
DOCKED: ATOM     18  C   UNL     1      11.367  20.797  17.954 -0.16 -0.00    +0.030 A  
DOCKED: ATOM     19  C   UNL     1      12.543  21.449  18.327 -0.17 -0.00    +0.022 A  
DOCKED: ATOM     20  C   UNL     1      13.468  21.825  17.351 -0.30 -0.00    +0.041 A  
DOCKED: ATOM     21 CL   UNL     1      14.904  22.651  17.811 -0.41 +0.01    -0.084 Cl 
DOCKED: ATOM     22  C   UNL     1      13.233  21.550  16.002 -0.31 -0.00    +0.022 A  
DOCKED: ATOM     23  C   UNL     1      12.053  20.907  15.621 -0.40 -0.00    +0.030 A  
DOCKED: ENDBRANCH  14  17
DOCKED: ENDBRANCH   1  14
DOCKED: TORSDOF 4
DOCKED: TER
DOCKED: ENDMDL
________________________________________________________________________________


    FINAL DOCKED STATE:
    ________________________


Run:   16 / 50
Time taken for this run:   0.000s

DOCKED: MODEL        16
DOCKED: USER    Run = 16
DOCKED: USER
DOCKED: USER    Estimated Free Energy of Binding    =  -4.58 kcal/mol  [=(1)+(2)+(3)-(4)]
DOCKED: USER
DOCKED: USER    (1) Final Intermolecular Energy     =  -5.77 kcal/mol
DOCKED: USER        vdW + Hbond + desolv Energy     =  -5.61 kcal/mol
DOCKED: USER        Electrostatic Energy            =  -0.15 kcal/mol
DOCKED: USER        Moving Ligand-Fixed Receptor    =  -5.77 kcal/mol
DOCKED: USER        Moving Ligand-Moving Receptor   =  +0.00 kcal/mol
DOCKED: USER    (2) Final Total Internal Energy     =  -1.48 kcal/mol
DOCKED: USER    (3) Torsional Free Energy           =  +1.19 kcal/mol
DOCKED: USER    (4) Unbound System's Energy         =  -1.48 kcal/mol
DOCKED: USER
DOCKED: USER
DOCKED: REMARK  Name = 
DOCKED: REMARK  5 active torsions:
DOCKED: REMARK  status: ('A' for Active; 'I' for Inactive)
DOCKED: REMARK    1  A    between atoms: C_1  and  C_2
DOCKED: REMARK    2  A    between atoms: N_4  and  C_5
DOCKED: REMARK    3  A    between atoms: C_8  and  N_9
DOCKED: REMARK    4  A    between atoms: N_9  and  S_10
DOCKED: REMARK    5  A    between atoms: S_10  and  C_13
DOCKED: REMARK                            x       y       z     vdW  Elec       q    Type
DOCKED: REMARK                         _______ _______ _______ _____ _____    ______ ____
DOCKED: USER                              x       y       z     vdW  Elec       q    Type
DOCKED: USER                           _______ _______ _______ _____ _____    ______ ____
DOCKED: ROOT
DOCKED: ATOM      1  N   UNL     1       8.573  21.292  15.649 -0.26 +0.04    -0.216 N  
DOCKED: ATOM      2  H   UNL     1       8.252  21.234  14.683 -0.05 -0.05    +0.174 HD 
DOCKED: ENDROOT
DOCKED: BRANCH   1   6
DOCKED: ATOM      3  C   UNL     1      10.138  25.009  16.911 -0.17 -0.01    +0.033 A  
DOCKED: ATOM      4  C   UNL     1       9.273  24.287  17.738 -0.17 -0.01    +0.025 A  
DOCKED: ATOM      5  C   UNL     1       8.744  23.060  17.323 -0.17 -0.01    +0.026 A  
DOCKED: ATOM      6  C   UNL     1       9.091  22.545  16.080 -0.30 -0.01    +0.048 A  
DOCKED: ATOM      7  C   UNL     1       9.919  23.275  15.230 -0.36 -0.00    +0.026 A  
DOCKED: ATOM      8  C   UNL     1      10.430  24.510  15.637 -0.28 +0.00    +0.025 A  
DOCKED: BRANCH   3  12
DOCKED: ATOM      9  C   UNL     1      12.394  27.830  17.989 -0.17 +0.00    +0.109 C  
DOCKED: ATOM     10  C   UNL     1      12.085  26.413  17.582 -0.14 +0.02    +0.214 C  
DOCKED: ATOM     11  O   UNL     1      12.974  25.570  17.524 -0.15 -0.04    -0.276 OA 
DOCKED: ATOM     12  N   UNL     1      10.745  26.225  17.291 -0.16 +0.11    -0.286 N  
DOCKED: ATOM     13  H   UNL     1      10.166  27.054  17.238 -0.21 -0.22    +0.155 HD 
DOCKED: ENDBRANCH   3  12
DOCKED: ENDBRANCH   1   6
DOCKED: BRANCH   1  14
DOCKED: ATOM     14  S   UNL     1       9.429  19.891  16.071 -0.47 -0.01    +0.072 S  
DOCKED: ATOM     15  O   UNL     1       8.809  19.377  17.274 -0.18 +0.02    -0.150 OA 
DOCKED: ATOM     16  O   UNL     1       9.578  19.063  14.894 -0.32 +0.03    -0.150 OA 
DOCKED: BRANCH  14  17
DOCKED: ATOM     17  C   UNL     1      11.015  20.539  16.528 -0.26 -0.01    +0.109 A  
DOCKED: ATOM     18  C   UNL     1      11.255  20.874  17.866 -0.16 -0.00    +0.030 A  
DOCKED: ATOM     19  C   UNL     1      12.463  21.481  18.213 -0.17 -0.00    +0.022 A  
DOCKED: ATOM     20  C   UNL     1      13.423  21.729  17.230 -0.31 -0.00    +0.041 A  
DOCKED: ATOM     21 CL   UNL     1      14.900  22.499  17.657 -0.43 +0.01    -0.084 Cl 
DOCKED: ATOM     22  C   UNL     1      13.191  21.370  15.901 -0.34 -0.00    +0.022 A  
DOCKED: ATOM     23  C   UNL     1      11.981  20.772  15.545 -0.39 -0.00    +0.030 A  
DOCKED: ENDBRANCH  14  17
DOCKED: ENDBRANCH   1  14
DOCKED: TORSDOF 4
DOCKED: TER
DOCKED: ENDMDL
________________________________________________________________________________


    FINAL DOCKED STATE:
    ________________________


Run:   17 / 50
Time taken for this run:   0.000s

DOCKED: MODEL        17
DOCKED: USER    Run = 17
DOCKED: USER
DOCKED: USER    Estimated Free Energy of Binding    =  -4.56 kcal/mol  [=(1)+(2)+(3)-(4)]
DOCKED: USER
DOCKED: USER    (1) Final Intermolecular Energy     =  -5.75 kcal/mol
DOCKED: USER        vdW + Hbond + desolv Energy     =  -5.59 kcal/mol
DOCKED: USER        Electrostatic Energy            =  -0.17 kcal/mol
DOCKED: USER        Moving Ligand-Fixed Receptor    =  -5.75 kcal/mol
DOCKED: USER        Moving Ligand-Moving Receptor   =  +0.00 kcal/mol
DOCKED: USER    (2) Final Total Internal Energy     =  -1.48 kcal/mol
DOCKED: USER    (3) Torsional Free Energy           =  +1.19 kcal/mol
DOCKED: USER    (4) Unbound System's Energy         =  -1.48 kcal/mol
DOCKED: USER
DOCKED: USER
DOCKED: REMARK  Name = 
DOCKED: REMARK  5 active torsions:
DOCKED: REMARK  status: ('A' for Active; 'I' for Inactive)
DOCKED: REMARK    1  A    between atoms: C_1  and  C_2
DOCKED: REMARK    2  A    between atoms: N_4  and  C_5
DOCKED: REMARK    3  A    between atoms: C_8  and  N_9
DOCKED: REMARK    4  A    between atoms: N_9  and  S_10
DOCKED: REMARK    5  A    between atoms: S_10  and  C_13
DOCKED: REMARK                            x       y       z     vdW  Elec       q    Type
DOCKED: REMARK                         _______ _______ _______ _____ _____    ______ ____
DOCKED: USER                              x       y       z     vdW  Elec       q    Type
DOCKED: USER                           _______ _______ _______ _____ _____    ______ ____
DOCKED: ROOT
DOCKED: ATOM      1  N   UNL     1       8.649  21.357  15.578 -0.25 +0.04    -0.216 N  
DOCKED: ATOM      2  H   UNL     1       8.405  21.315  14.589 -0.05 -0.04    +0.174 HD 
DOCKED: ENDROOT
DOCKED: BRANCH   1   6
DOCKED: ATOM      3  C   UNL     1      10.107  25.052  17.019 -0.18 -0.01    +0.033 A  
DOCKED: ATOM      4  C   UNL     1       9.238  24.282  17.797 -0.17 -0.01    +0.025 A  
DOCKED: ATOM      5  C   UNL     1       8.744  23.062  17.323 -0.17 -0.01    +0.026 A  
DOCKED: ATOM      6  C   UNL     1       9.130  22.602  16.070 -0.30 -0.01    +0.048 A  
DOCKED: ATOM      7  C   UNL     1       9.962  23.381  15.268 -0.38 -0.00    +0.026 A  
DOCKED: ATOM      8  C   UNL     1      10.438  24.609  15.735 -0.24 -0.00    +0.025 A  
DOCKED: BRANCH   3  12
DOCKED: ATOM      9  C   UNL     1      12.283  27.879  18.235 -0.16 -0.01    +0.109 C  
DOCKED: ATOM     10  C   UNL     1      12.014  26.478  17.756 -0.16 +0.01    +0.214 C  
DOCKED: ATOM     11  O   UNL     1      12.927  25.665  17.651 -0.15 -0.04    -0.276 OA 
DOCKED: ATOM     12  N   UNL     1      10.679  26.264  17.460 -0.15 +0.14    -0.286 N  
DOCKED: ATOM     13  H   UNL     1      10.075  27.078  17.453 -0.19 -0.24    +0.155 HD 
DOCKED: ENDBRANCH   3  12
DOCKED: ENDBRANCH   1   6
DOCKED: BRANCH   1  14
DOCKED: ATOM     14  S   UNL     1       9.470  19.949  16.044 -0.47 -0.01    +0.072 S  
DOCKED: ATOM     15  O   UNL     1       8.793  19.448  17.222 -0.18 +0.02    -0.150 OA 
DOCKED: ATOM     16  O   UNL     1       9.658  19.112  14.879 -0.36 +0.03    -0.150 OA 
DOCKED: BRANCH  14  17
DOCKED: ATOM     17  C   UNL     1      11.042  20.581  16.564 -0.25 -0.01    +0.109 A  
DOCKED: ATOM     18  C   UNL     1      11.263  20.825  17.924 -0.16 -0.00    +0.030 A  
DOCKED: ATOM     19  C   UNL     1      12.460  21.420  18.327 -0.17 -0.00    +0.022 A  
DOCKED: ATOM     20  C   UNL     1      13.428  21.746  17.375 -0.30 -0.01    +0.041 A  
DOCKED: ATOM     21 CL   UNL     1      14.891  22.501  17.872 -0.41 +0.01    -0.084 Cl 
DOCKED: ATOM     22  C   UNL     1      13.216  21.477  16.022 -0.33 -0.00    +0.022 A  
DOCKED: ATOM     23  C   UNL     1      12.017  20.892  15.611 -0.40 -0.00    +0.030 A  
DOCKED: ENDBRANCH  14  17
DOCKED: ENDBRANCH   1  14
DOCKED: TORSDOF 4
DOCKED: TER
DOCKED: ENDMDL
________________________________________________________________________________


    FINAL DOCKED STATE:
    ________________________


Run:   18 / 50
Time taken for this run:   0.000s

DOCKED: MODEL        18
DOCKED: USER    Run = 18
DOCKED: USER
DOCKED: USER    Estimated Free Energy of Binding    =  -4.57 kcal/mol  [=(1)+(2)+(3)-(4)]
DOCKED: USER
DOCKED: USER    (1) Final Intermolecular Energy     =  -5.76 kcal/mol
DOCKED: USER        vdW + Hbond + desolv Energy     =  -5.62 kcal/mol
DOCKED: USER        Electrostatic Energy            =  -0.15 kcal/mol
DOCKED: USER        Moving Ligand-Fixed Receptor    =  -5.76 kcal/mol
DOCKED: USER        Moving Ligand-Moving Receptor   =  +0.00 kcal/mol
DOCKED: USER    (2) Final Total Internal Energy     =  -1.48 kcal/mol
DOCKED: USER    (3) Torsional Free Energy           =  +1.19 kcal/mol
DOCKED: USER    (4) Unbound System's Energy         =  -1.48 kcal/mol
DOCKED: USER
DOCKED: USER
DOCKED: REMARK  Name = 
DOCKED: REMARK  5 active torsions:
DOCKED: REMARK  status: ('A' for Active; 'I' for Inactive)
DOCKED: REMARK    1  A    between atoms: C_1  and  C_2
DOCKED: REMARK    2  A    between atoms: N_4  and  C_5
DOCKED: REMARK    3  A    between atoms: C_8  and  N_9
DOCKED: REMARK    4  A    between atoms: N_9  and  S_10
DOCKED: REMARK    5  A    between atoms: S_10  and  C_13
DOCKED: REMARK                            x       y       z     vdW  Elec       q    Type
DOCKED: REMARK                         _______ _______ _______ _____ _____    ______ ____
DOCKED: USER                              x       y       z     vdW  Elec       q    Type
DOCKED: USER                           _______ _______ _______ _____ _____    ______ ____
DOCKED: ROOT
DOCKED: ATOM      1  N   UNL     1       8.628  21.323  15.645 -0.26 +0.04    -0.216 N  
DOCKED: ATOM      2  H   UNL     1       8.310  21.263  14.678 -0.05 -0.04    +0.174 HD 
DOCKED: ENDROOT
DOCKED: BRANCH   1   6
DOCKED: ATOM      3  C   UNL     1      10.181  25.045  16.906 -0.18 -0.01    +0.033 A  
DOCKED: ATOM      4  C   UNL     1       9.308  24.326  17.728 -0.17 -0.01    +0.025 A  
DOCKED: ATOM      5  C   UNL     1       8.783  23.098  17.314 -0.17 -0.01    +0.026 A  
DOCKED: ATOM      6  C   UNL     1       9.142  22.577  16.076 -0.30 -0.01    +0.048 A  
DOCKED: ATOM      7  C   UNL     1       9.978  23.304  15.231 -0.37 -0.00    +0.026 A  
DOCKED: ATOM      8  C   UNL     1      10.485  24.540  15.638 -0.25 +0.00    +0.025 A  
DOCKED: BRANCH   3  12
DOCKED: ATOM      9  C   UNL     1      12.416  27.863  18.035 -0.17 +0.00    +0.109 C  
DOCKED: ATOM     10  C   UNL     1      12.108  26.440  17.649 -0.14 +0.02    +0.214 C  
DOCKED: ATOM     11  O   UNL     1      12.986  25.583  17.666 -0.14 -0.03    -0.276 OA 
DOCKED: ATOM     12  N   UNL     1      10.784  26.262  17.287 -0.16 +0.10    -0.286 N  
DOCKED: ATOM     13  H   UNL     1      10.222  27.097  17.179 -0.22 -0.21    +0.155 HD 
DOCKED: ENDBRANCH   3  12
DOCKED: ENDBRANCH   1   6
DOCKED: BRANCH   1  14
DOCKED: ATOM     14  S   UNL     1       9.486  19.925  16.071 -0.47 -0.01    +0.072 S  
DOCKED: ATOM     15  O   UNL     1       8.850  19.398  17.260 -0.18 +0.02    -0.150 OA 
DOCKED: ATOM     16  O   UNL     1       9.659  19.106  14.891 -0.37 +0.03    -0.150 OA 
DOCKED: BRANCH  14  17
DOCKED: ATOM     17  C   UNL     1      11.060  20.579  16.558 -0.25 -0.01    +0.109 A  
DOCKED: ATOM     18  C   UNL     1      11.273  20.915  17.900 -0.16 -0.00    +0.030 A  
DOCKED: ATOM     19  C   UNL     1      12.472  21.527  18.270 -0.17 -0.00    +0.022 A  
DOCKED: ATOM     20  C   UNL     1      13.449  21.779  17.305 -0.30 -0.00    +0.041 A  
DOCKED: ATOM     21 CL   UNL     1      14.915  22.556  17.760 -0.42 +0.01    -0.084 Cl 
DOCKED: ATOM     22  C   UNL     1      13.244  21.420  15.972 -0.32 -0.00    +0.022 A  
DOCKED: ATOM     23  C   UNL     1      12.043  20.817  15.593 -0.39 -0.00    +0.030 A  
DOCKED: ENDBRANCH  14  17
DOCKED: ENDBRANCH   1  14
DOCKED: TORSDOF 4
DOCKED: TER
DOCKED: ENDMDL
________________________________________________________________________________


    FINAL DOCKED STATE:
    ________________________


Run:   19 / 50
Time taken for this run:   0.000s

DOCKED: MODEL        19
DOCKED: USER    Run = 19
DOCKED: USER
DOCKED: USER    Estimated Free Energy of Binding    =  -4.25 kcal/mol  [=(1)+(2)+(3)-(4)]
DOCKED: USER
DOCKED: USER    (1) Final Intermolecular Energy     =  -5.44 kcal/mol
DOCKED: USER        vdW + Hbond + desolv Energy     =  -5.35 kcal/mol
DOCKED: USER        Electrostatic Energy            =  -0.09 kcal/mol
DOCKED: USER        Moving Ligand-Fixed Receptor    =  -5.44 kcal/mol
DOCKED: USER        Moving Ligand-Moving Receptor   =  +0.00 kcal/mol
DOCKED: USER    (2) Final Total Internal Energy     =  -1.47 kcal/mol
DOCKED: USER    (3) Torsional Free Energy           =  +1.19 kcal/mol
DOCKED: USER    (4) Unbound System's Energy         =  -1.47 kcal/mol
DOCKED: USER
DOCKED: USER
DOCKED: REMARK  Name = 
DOCKED: REMARK  5 active torsions:
DOCKED: REMARK  status: ('A' for Active; 'I' for Inactive)
DOCKED: REMARK    1  A    between atoms: C_1  and  C_2
DOCKED: REMARK    2  A    between atoms: N_4  and  C_5
DOCKED: REMARK    3  A    between atoms: C_8  and  N_9
DOCKED: REMARK    4  A    between atoms: N_9  and  S_10
DOCKED: REMARK    5  A    between atoms: S_10  and  C_13
DOCKED: REMARK                            x       y       z     vdW  Elec       q    Type
DOCKED: REMARK                         _______ _______ _______ _____ _____    ______ ____
DOCKED: USER                              x       y       z     vdW  Elec       q    Type
DOCKED: USER                           _______ _______ _______ _____ _____    ______ ____
DOCKED: ROOT
DOCKED: ATOM      1  N   UNL     1       9.600  20.266  16.677 -0.17 +0.03    -0.216 N  
DOCKED: ATOM      2  H   UNL     1       9.283  19.640  17.418 +0.06 -0.02    +0.174 HD 
DOCKED: ENDROOT
DOCKED: BRANCH   1   6
DOCKED: ATOM      3  C   UNL     1      13.602  21.603  16.909 -0.30 -0.00    +0.033 A  
DOCKED: ATOM      4  C   UNL     1      13.021  21.319  15.670 -0.35 -0.00    +0.025 A  
DOCKED: ATOM      5  C   UNL     1      11.700  20.867  15.586 -0.37 -0.00    +0.026 A  
DOCKED: ATOM      6  C   UNL     1      10.950  20.710  16.745 -0.25 -0.01    +0.048 A  
DOCKED: ATOM      7  C   UNL     1      11.531  20.951  17.989 -0.16 -0.00    +0.026 A  
DOCKED: ATOM      8  C   UNL     1      12.858  21.382  18.072 -0.20 -0.00    +0.025 A  
DOCKED: BRANCH   3  12
DOCKED: ATOM      9  C   UNL     1      16.739  23.603  17.519 -0.29 -0.01    +0.109 C  
DOCKED: ATOM     10  C   UNL     1      15.251  23.370  17.519 -0.22 -0.01    +0.214 C  
DOCKED: ATOM     11  O   UNL     1      14.481  24.241  17.909 -0.13 -0.00    -0.276 OA 
DOCKED: ATOM     12  N   UNL     1      14.910  22.110  17.057 -0.24 +0.06    -0.286 N  
DOCKED: ATOM     13  H   UNL     1      15.668  21.453  16.917 -0.37 -0.11    +0.155 HD 
DOCKED: ENDBRANCH   3  12
DOCKED: ENDBRANCH   1   6
DOCKED: BRANCH   1  14
DOCKED: ATOM     14  S   UNL     1       8.404  21.411  16.320 -0.36 -0.02    +0.072 S  
DOCKED: ATOM     15  O   UNL     1       8.208  21.369  14.886 -0.29 +0.04    -0.150 OA 
DOCKED: ATOM     16  O   UNL     1       7.295  21.227  17.231 -0.11 +0.04    -0.150 OA 
DOCKED: BRANCH  14  17
DOCKED: ATOM     17  C   UNL     1       9.218  22.940  16.698 -0.21 -0.03    +0.109 A  
DOCKED: ATOM     18  C   UNL     1       9.942  23.593  15.695 -0.37 -0.00    +0.030 A  
DOCKED: ATOM     19  C   UNL     1      10.670  24.741  16.013 -0.24 +0.00    +0.022 A  
DOCKED: ATOM     20  C   UNL     1      10.652  25.234  17.319 -0.22 -0.01    +0.041 A  
DOCKED: ATOM     21 CL   UNL     1      11.570  26.634  17.714 -0.29 +0.01    -0.084 Cl 
DOCKED: ATOM     22  C   UNL     1       9.907  24.595  18.313 -0.13 -0.01    +0.022 A  
DOCKED: ATOM     23  C   UNL     1       9.186  23.441  18.003 -0.12 -0.01    +0.030 A  
DOCKED: ENDBRANCH  14  17
DOCKED: ENDBRANCH   1  14
DOCKED: TORSDOF 4
DOCKED: TER
DOCKED: ENDMDL
________________________________________________________________________________


    FINAL DOCKED STATE:
    ________________________


Run:   20 / 50
Time taken for this run:   0.000s

DOCKED: MODEL        20
DOCKED: USER    Run = 20
DOCKED: USER
DOCKED: USER    Estimated Free Energy of Binding    =  -4.25 kcal/mol  [=(1)+(2)+(3)-(4)]
DOCKED: USER
DOCKED: USER    (1) Final Intermolecular Energy     =  -5.44 kcal/mol
DOCKED: USER        vdW + Hbond + desolv Energy     =  -5.35 kcal/mol
DOCKED: USER        Electrostatic Energy            =  -0.09 kcal/mol
DOCKED: USER        Moving Ligand-Fixed Receptor    =  -5.44 kcal/mol
DOCKED: USER        Moving Ligand-Moving Receptor   =  +0.00 kcal/mol
DOCKED: USER    (2) Final Total Internal Energy     =  -1.47 kcal/mol
DOCKED: USER    (3) Torsional Free Energy           =  +1.19 kcal/mol
DOCKED: USER    (4) Unbound System's Energy         =  -1.47 kcal/mol
DOCKED: USER
DOCKED: USER
DOCKED: REMARK  Name = 
DOCKED: REMARK  5 active torsions:
DOCKED: REMARK  status: ('A' for Active; 'I' for Inactive)
DOCKED: REMARK    1  A    between atoms: C_1  and  C_2
DOCKED: REMARK    2  A    between atoms: N_4  and  C_5
DOCKED: REMARK    3  A    between atoms: C_8  and  N_9
DOCKED: REMARK    4  A    between atoms: N_9  and  S_10
DOCKED: REMARK    5  A    between atoms: S_10  and  C_13
DOCKED: REMARK                            x       y       z     vdW  Elec       q    Type
DOCKED: REMARK                         _______ _______ _______ _____ _____    ______ ____
DOCKED: USER                              x       y       z     vdW  Elec       q    Type
DOCKED: USER                           _______ _______ _______ _____ _____    ______ ____
DOCKED: ROOT
DOCKED: ATOM      1  N   UNL     1       9.620  20.258  16.651 -0.18 +0.03    -0.216 N  
DOCKED: ATOM      2  H   UNL     1       9.309  19.616  17.379 +0.06 -0.02    +0.174 HD 
DOCKED: ENDROOT
DOCKED: BRANCH   1   6
DOCKED: ATOM      3  C   UNL     1      13.620  21.601  16.889 -0.30 -0.00    +0.033 A  
DOCKED: ATOM      4  C   UNL     1      13.039  21.321  15.648 -0.35 -0.00    +0.025 A  
DOCKED: ATOM      5  C   UNL     1      11.719  20.868  15.562 -0.37 -0.00    +0.026 A  
DOCKED: ATOM      6  C   UNL     1      10.969  20.705  16.721 -0.26 -0.01    +0.048 A  
DOCKED: ATOM      7  C   UNL     1      11.550  20.940  17.965 -0.17 -0.00    +0.026 A  
DOCKED: ATOM      8  C   UNL     1      12.876  21.374  18.051 -0.20 -0.00    +0.025 A  
DOCKED: BRANCH   3  12
DOCKED: ATOM      9  C   UNL     1      16.754  23.604  17.502 -0.30 -0.01    +0.109 C  
DOCKED: ATOM     10  C   UNL     1      15.266  23.371  17.498 -0.21 -0.01    +0.214 C  
DOCKED: ATOM     11  O   UNL     1      14.494  24.243  17.884 -0.13 -0.00    -0.276 OA 
DOCKED: ATOM     12  N   UNL     1      14.928  22.109  17.040 -0.23 +0.06    -0.286 N  
DOCKED: ATOM     13  H   UNL     1      15.686  21.452  16.904 -0.37 -0.11    +0.155 HD 
DOCKED: ENDBRANCH   3  12
DOCKED: ENDBRANCH   1   6
DOCKED: BRANCH   1  14
DOCKED: ATOM     14  S   UNL     1       8.419  21.409  16.326 -0.36 -0.02    +0.072 S  
DOCKED: ATOM     15  O   UNL     1       8.200  21.382  14.895 -0.29 +0.04    -0.150 OA 
DOCKED: ATOM     16  O   UNL     1       7.325  21.215  17.252 -0.11 +0.04    -0.150 OA 
DOCKED: BRANCH  14  17
DOCKED: ATOM     17  C   UNL     1       9.240  22.933  16.708 -0.21 -0.03    +0.109 A  
DOCKED: ATOM     18  C   UNL     1       9.953  23.594  15.701 -0.37 -0.00    +0.030 A  
DOCKED: ATOM     19  C   UNL     1      10.686  24.738  16.021 -0.24 +0.00    +0.022 A  
DOCKED: ATOM     20  C   UNL     1      10.686  25.219  17.332 -0.22 -0.01    +0.041 A  
DOCKED: ATOM     21 CL   UNL     1      11.611  26.614  17.728 -0.29 +0.01    -0.084 Cl 
DOCKED: ATOM     22  C   UNL     1       9.953  24.572  18.328 -0.13 -0.01    +0.022 A  
DOCKED: ATOM     23  C   UNL     1       9.225  23.421  18.018 -0.12 -0.01    +0.030 A  
DOCKED: ENDBRANCH  14  17
DOCKED: ENDBRANCH   1  14
DOCKED: TORSDOF 4
DOCKED: TER
DOCKED: ENDMDL
________________________________________________________________________________


    FINAL DOCKED STATE:
    ________________________


Run:   21 / 50
Time taken for this run:   0.000s

DOCKED: MODEL        21
DOCKED: USER    Run = 21
DOCKED: USER
DOCKED: USER    Estimated Free Energy of Binding    =  -4.24 kcal/mol  [=(1)+(2)+(3)-(4)]
DOCKED: USER
DOCKED: USER    (1) Final Intermolecular Energy     =  -5.44 kcal/mol
DOCKED: USER        vdW + Hbond + desolv Energy     =  -5.35 kcal/mol
DOCKED: USER        Electrostatic Energy            =  -0.09 kcal/mol
DOCKED: USER        Moving Ligand-Fixed Receptor    =  -5.44 kcal/mol
DOCKED: USER        Moving Ligand-Moving Receptor   =  +0.00 kcal/mol
DOCKED: USER    (2) Final Total Internal Energy     =  -1.49 kcal/mol
DOCKED: USER    (3) Torsional Free Energy           =  +1.19 kcal/mol
DOCKED: USER    (4) Unbound System's Energy         =  -1.49 kcal/mol
DOCKED: USER
DOCKED: USER
DOCKED: REMARK  Name = 
DOCKED: REMARK  5 active torsions:
DOCKED: REMARK  status: ('A' for Active; 'I' for Inactive)
DOCKED: REMARK    1  A    between atoms: C_1  and  C_2
DOCKED: REMARK    2  A    between atoms: N_4  and  C_5
DOCKED: REMARK    3  A    between atoms: C_8  and  N_9
DOCKED: REMARK    4  A    between atoms: N_9  and  S_10
DOCKED: REMARK    5  A    between atoms: S_10  and  C_13
DOCKED: REMARK                            x       y       z     vdW  Elec       q    Type
DOCKED: REMARK                         _______ _______ _______ _____ _____    ______ ____
DOCKED: USER                              x       y       z     vdW  Elec       q    Type
DOCKED: USER                           _______ _______ _______ _____ _____    ______ ____
DOCKED: ROOT
DOCKED: ATOM      1  N   UNL     1       9.631  20.242  16.603 -0.18 +0.03    -0.216 N  
DOCKED: ATOM      2  H   UNL     1       9.324  19.572  17.307 +0.06 -0.02    +0.174 HD 
DOCKED: ENDROOT
DOCKED: BRANCH   1   6
DOCKED: ATOM      3  C   UNL     1      13.617  21.613  16.901 -0.31 -0.00    +0.033 A  
DOCKED: ATOM      4  C   UNL     1      13.053  21.342  15.650 -0.35 -0.00    +0.025 A  
DOCKED: ATOM      5  C   UNL     1      11.737  20.879  15.545 -0.37 -0.00    +0.026 A  
DOCKED: ATOM      6  C   UNL     1      10.975  20.698  16.693 -0.26 -0.01    +0.048 A  
DOCKED: ATOM      7  C   UNL     1      11.541  20.925  17.946 -0.17 -0.00    +0.026 A  
DOCKED: ATOM      8  C   UNL     1      12.862  21.368  18.051 -0.20 -0.00    +0.025 A  
DOCKED: BRANCH   3  12
DOCKED: ATOM      9  C   UNL     1      16.729  23.640  17.550 -0.29 -0.01    +0.109 C  
DOCKED: ATOM     10  C   UNL     1      15.242  23.399  17.518 -0.21 -0.01    +0.214 C  
DOCKED: ATOM     11  O   UNL     1      14.459  24.273  17.875 -0.13 -0.00    -0.276 OA 
DOCKED: ATOM     12  N   UNL     1      14.919  22.130  17.071 -0.24 +0.06    -0.286 N  
DOCKED: ATOM     13  H   UNL     1      15.683  21.474  16.960 -0.36 -0.11    +0.155 HD 
DOCKED: ENDBRANCH   3  12
DOCKED: ENDBRANCH   1   6
DOCKED: BRANCH   1  14
DOCKED: ATOM     14  S   UNL     1       8.420  21.392  16.315 -0.36 -0.02    +0.072 S  
DOCKED: ATOM     15  O   UNL     1       8.171  21.380  14.889 -0.29 +0.04    -0.150 OA 
DOCKED: ATOM     16  O   UNL     1       7.347  21.186  17.263 -0.11 +0.04    -0.150 OA 
DOCKED: BRANCH  14  17
DOCKED: ATOM     17  C   UNL     1       9.245  22.915  16.696 -0.21 -0.03    +0.109 A  
DOCKED: ATOM     18  C   UNL     1       9.932  23.590  15.681 -0.37 -0.00    +0.030 A  
DOCKED: ATOM     19  C   UNL     1      10.670  24.733  15.996 -0.23 +0.00    +0.022 A  
DOCKED: ATOM     20  C   UNL     1      10.698  25.199  17.312 -0.22 -0.01    +0.041 A  
DOCKED: ATOM     21 CL   UNL     1      11.627  26.592  17.702 -0.29 +0.01    -0.084 Cl 
DOCKED: ATOM     22  C   UNL     1       9.990  24.538  18.318 -0.13 -0.01    +0.022 A  
DOCKED: ATOM     23  C   UNL     1       9.259  23.389  18.011 -0.11 -0.01    +0.030 A  
DOCKED: ENDBRANCH  14  17
DOCKED: ENDBRANCH   1  14
DOCKED: TORSDOF 4
DOCKED: TER
DOCKED: ENDMDL
________________________________________________________________________________


    FINAL DOCKED STATE:
    ________________________


Run:   22 / 50
Time taken for this run:   0.000s

DOCKED: MODEL        22
DOCKED: USER    Run = 22
DOCKED: USER
DOCKED: USER    Estimated Free Energy of Binding    =  -4.58 kcal/mol  [=(1)+(2)+(3)-(4)]
DOCKED: USER
DOCKED: USER    (1) Final Intermolecular Energy     =  -5.77 kcal/mol
DOCKED: USER        vdW + Hbond + desolv Energy     =  -5.61 kcal/mol
DOCKED: USER        Electrostatic Energy            =  -0.16 kcal/mol
DOCKED: USER        Moving Ligand-Fixed Receptor    =  -5.77 kcal/mol
DOCKED: USER        Moving Ligand-Moving Receptor   =  +0.00 kcal/mol
DOCKED: USER    (2) Final Total Internal Energy     =  -1.48 kcal/mol
DOCKED: USER    (3) Torsional Free Energy           =  +1.19 kcal/mol
DOCKED: USER    (4) Unbound System's Energy         =  -1.48 kcal/mol
DOCKED: USER
DOCKED: USER
DOCKED: REMARK  Name = 
DOCKED: REMARK  5 active torsions:
DOCKED: REMARK  status: ('A' for Active; 'I' for Inactive)
DOCKED: REMARK    1  A    between atoms: C_1  and  C_2
DOCKED: REMARK    2  A    between atoms: N_4  and  C_5
DOCKED: REMARK    3  A    between atoms: C_8  and  N_9
DOCKED: REMARK    4  A    between atoms: N_9  and  S_10
DOCKED: REMARK    5  A    between atoms: S_10  and  C_13
DOCKED: REMARK                            x       y       z     vdW  Elec       q    Type
DOCKED: REMARK                         _______ _______ _______ _____ _____    ______ ____
DOCKED: USER                              x       y       z     vdW  Elec       q    Type
DOCKED: USER                           _______ _______ _______ _____ _____    ______ ____
DOCKED: ROOT
DOCKED: ATOM      1  N   UNL     1       8.572  21.328  15.622 -0.26 +0.05    -0.216 N  
DOCKED: ATOM      2  H   UNL     1       8.272  21.273  14.649 -0.06 -0.05    +0.174 HD 
DOCKED: ENDROOT
DOCKED: BRANCH   1   6
DOCKED: ATOM      3  C   UNL     1      10.126  25.034  16.927 -0.17 -0.01    +0.033 A  
DOCKED: ATOM      4  C   UNL     1       9.248  24.308  17.739 -0.17 -0.01    +0.025 A  
DOCKED: ATOM      5  C   UNL     1       8.723  23.086  17.310 -0.17 -0.01    +0.026 A  
DOCKED: ATOM      6  C   UNL     1       9.086  22.577  16.068 -0.30 -0.01    +0.048 A  
DOCKED: ATOM      7  C   UNL     1       9.926  23.311  15.234 -0.37 -0.00    +0.026 A  
DOCKED: ATOM      8  C   UNL     1      10.434  24.542  15.655 -0.26 +0.00    +0.025 A  
DOCKED: BRANCH   3  12
DOCKED: ATOM      9  C   UNL     1      12.377  27.849  18.031 -0.17 +0.00    +0.109 C  
DOCKED: ATOM     10  C   UNL     1      12.072  26.438  17.601 -0.14 +0.02    +0.214 C  
DOCKED: ATOM     11  O   UNL     1      12.965  25.602  17.517 -0.15 -0.04    -0.276 OA 
DOCKED: ATOM     12  N   UNL     1      10.730  26.246  17.323 -0.15 +0.11    -0.286 N  
DOCKED: ATOM     13  H   UNL     1      10.145  27.073  17.293 -0.20 -0.22    +0.155 HD 
DOCKED: ENDBRANCH   3  12
DOCKED: ENDBRANCH   1   6
DOCKED: BRANCH   1  14
DOCKED: ATOM     14  S   UNL     1       9.411  19.922  16.060 -0.47 -0.01    +0.072 S  
DOCKED: ATOM     15  O   UNL     1       8.783  19.427  17.268 -0.17 +0.02    -0.150 OA 
DOCKED: ATOM     16  O   UNL     1       9.552  19.080  14.893 -0.32 +0.03    -0.150 OA 
DOCKED: BRANCH  14  17
DOCKED: ATOM     17  C   UNL     1      11.003  20.556  16.513 -0.26 -0.01    +0.109 A  
DOCKED: ATOM     18  C   UNL     1      11.252  20.883  17.851 -0.16 -0.00    +0.030 A  
DOCKED: ATOM     19  C   UNL     1      12.466  21.479  18.196 -0.17 -0.00    +0.022 A  
DOCKED: ATOM     20  C   UNL     1      13.423  21.725  17.209 -0.31 -0.00    +0.041 A  
DOCKED: ATOM     21 CL   UNL     1      14.907  22.484  17.633 -0.43 +0.01    -0.084 Cl 
DOCKED: ATOM     22  C   UNL     1      13.183  21.375  15.880 -0.33 -0.00    +0.022 A  
DOCKED: ATOM     23  C   UNL     1      11.966  20.787  15.526 -0.39 -0.00    +0.030 A  
DOCKED: ENDBRANCH  14  17
DOCKED: ENDBRANCH   1  14
DOCKED: TORSDOF 4
DOCKED: TER
DOCKED: ENDMDL
________________________________________________________________________________


    FINAL DOCKED STATE:
    ________________________


Run:   23 / 50
Time taken for this run:   0.000s

DOCKED: MODEL        23
DOCKED: USER    Run = 23
DOCKED: USER
DOCKED: USER    Estimated Free Energy of Binding    =  -4.56 kcal/mol  [=(1)+(2)+(3)-(4)]
DOCKED: USER
DOCKED: USER    (1) Final Intermolecular Energy     =  -5.75 kcal/mol
DOCKED: USER        vdW + Hbond + desolv Energy     =  -5.59 kcal/mol
DOCKED: USER        Electrostatic Energy            =  -0.17 kcal/mol
DOCKED: USER        Moving Ligand-Fixed Receptor    =  -5.75 kcal/mol
DOCKED: USER        Moving Ligand-Moving Receptor   =  +0.00 kcal/mol
DOCKED: USER    (2) Final Total Internal Energy     =  -1.48 kcal/mol
DOCKED: USER    (3) Torsional Free Energy           =  +1.19 kcal/mol
DOCKED: USER    (4) Unbound System's Energy         =  -1.48 kcal/mol
DOCKED: USER
DOCKED: USER
DOCKED: REMARK  Name = 
DOCKED: REMARK  5 active torsions:
DOCKED: REMARK  status: ('A' for Active; 'I' for Inactive)
DOCKED: REMARK    1  A    between atoms: C_1  and  C_2
DOCKED: REMARK    2  A    between atoms: N_4  and  C_5
DOCKED: REMARK    3  A    between atoms: C_8  and  N_9
DOCKED: REMARK    4  A    between atoms: N_9  and  S_10
DOCKED: REMARK    5  A    between atoms: S_10  and  C_13
DOCKED: REMARK                            x       y       z     vdW  Elec       q    Type
DOCKED: REMARK                         _______ _______ _______ _____ _____    ______ ____
DOCKED: USER                              x       y       z     vdW  Elec       q    Type
DOCKED: USER                           _______ _______ _______ _____ _____    ______ ____
DOCKED: ROOT
DOCKED: ATOM      1  N   UNL     1       8.660  21.383  15.569 -0.25 +0.04    -0.216 N  
DOCKED: ATOM      2  H   UNL     1       8.430  21.341  14.577 -0.06 -0.04    +0.174 HD 
DOCKED: ENDROOT
DOCKED: BRANCH   1   6
DOCKED: ATOM      3  C   UNL     1      10.112  25.074  17.028 -0.18 -0.01    +0.033 A  
DOCKED: ATOM      4  C   UNL     1       9.238  24.301  17.799 -0.17 -0.01    +0.025 A  
DOCKED: ATOM      5  C   UNL     1       8.747  23.083  17.319 -0.17 -0.01    +0.026 A  
DOCKED: ATOM      6  C   UNL     1       9.139  22.626  16.067 -0.31 -0.01    +0.048 A  
DOCKED: ATOM      7  C   UNL     1       9.976  23.407  15.272 -0.39 -0.00    +0.026 A  
DOCKED: ATOM      8  C   UNL     1      10.450  24.634  15.744 -0.23 -0.00    +0.025 A  
DOCKED: BRANCH   3  12
DOCKED: ATOM      9  C   UNL     1      12.283  27.896  18.263 -0.16 -0.01    +0.109 C  
DOCKED: ATOM     10  C   UNL     1      12.016  26.496  17.778 -0.16 +0.00    +0.214 C  
DOCKED: ATOM     11  O   UNL     1      12.929  25.684  17.676 -0.14 -0.03    -0.276 OA 
DOCKED: ATOM     12  N   UNL     1      10.682  26.284  17.475 -0.15 +0.14    -0.286 N  
DOCKED: ATOM     13  H   UNL     1      10.079  27.097  17.467 -0.19 -0.24    +0.155 HD 
DOCKED: ENDBRANCH   3  12
DOCKED: ENDBRANCH   1   6
DOCKED: BRANCH   1  14
DOCKED: ATOM     14  S   UNL     1       9.469  19.972  16.047 -0.47 -0.01    +0.072 S  
DOCKED: ATOM     15  O   UNL     1       8.790  19.489  17.232 -0.18 +0.02    -0.150 OA 
DOCKED: ATOM     16  O   UNL     1       9.646  19.122  14.890 -0.37 +0.03    -0.150 OA 
DOCKED: BRANCH  14  17
DOCKED: ATOM     17  C   UNL     1      11.048  20.594  16.557 -0.25 -0.01    +0.109 A  
DOCKED: ATOM     18  C   UNL     1      11.275  20.847  17.915 -0.16 -0.00    +0.030 A  
DOCKED: ATOM     19  C   UNL     1      12.478  21.435  18.310 -0.17 -0.00    +0.022 A  
DOCKED: ATOM     20  C   UNL     1      13.446  21.745  17.353 -0.30 -0.01    +0.041 A  
DOCKED: ATOM     21 CL   UNL     1      14.917  22.491  17.840 -0.42 +0.01    -0.084 Cl 
DOCKED: ATOM     22  C   UNL     1      13.228  21.467  16.002 -0.32 -0.00    +0.022 A  
DOCKED: ATOM     23  C   UNL     1      12.022  20.890  15.599 -0.40 -0.00    +0.030 A  
DOCKED: ENDBRANCH  14  17
DOCKED: ENDBRANCH   1  14
DOCKED: TORSDOF 4
DOCKED: TER
DOCKED: ENDMDL
________________________________________________________________________________


    FINAL DOCKED STATE:
    ________________________


Run:   24 / 50
Time taken for this run:   0.000s

DOCKED: MODEL        24
DOCKED: USER    Run = 24
DOCKED: USER
DOCKED: USER    Estimated Free Energy of Binding    =  -4.59 kcal/mol  [=(1)+(2)+(3)-(4)]
DOCKED: USER
DOCKED: USER    (1) Final Intermolecular Energy     =  -5.78 kcal/mol
DOCKED: USER        vdW + Hbond + desolv Energy     =  -5.64 kcal/mol
DOCKED: USER        Electrostatic Energy            =  -0.15 kcal/mol
DOCKED: USER        Moving Ligand-Fixed Receptor    =  -5.78 kcal/mol
DOCKED: USER        Moving Ligand-Moving Receptor   =  +0.00 kcal/mol
DOCKED: USER    (2) Final Total Internal Energy     =  -1.48 kcal/mol
DOCKED: USER    (3) Torsional Free Energy           =  +1.19 kcal/mol
DOCKED: USER    (4) Unbound System's Energy         =  -1.48 kcal/mol
DOCKED: USER
DOCKED: USER
DOCKED: REMARK  Name = 
DOCKED: REMARK  5 active torsions:
DOCKED: REMARK  status: ('A' for Active; 'I' for Inactive)
DOCKED: REMARK    1  A    between atoms: C_1  and  C_2
DOCKED: REMARK    2  A    between atoms: N_4  and  C_5
DOCKED: REMARK    3  A    between atoms: C_8  and  N_9
DOCKED: REMARK    4  A    between atoms: N_9  and  S_10
DOCKED: REMARK    5  A    between atoms: S_10  and  C_13
DOCKED: REMARK                            x       y       z     vdW  Elec       q    Type
DOCKED: REMARK                         _______ _______ _______ _____ _____    ______ ____
DOCKED: USER                              x       y       z     vdW  Elec       q    Type
DOCKED: USER                           _______ _______ _______ _____ _____    ______ ____
DOCKED: ROOT
DOCKED: ATOM      1  N   UNL     1       8.539  21.302  15.682 -0.26 +0.05    -0.216 N  
DOCKED: ATOM      2  H   UNL     1       8.182  21.244  14.728 -0.05 -0.05    +0.174 HD 
DOCKED: ENDROOT
DOCKED: BRANCH   1   6
DOCKED: ATOM      3  C   UNL     1      10.161  25.015  16.882 -0.17 -0.01    +0.033 A  
DOCKED: ATOM      4  C   UNL     1       9.299  24.311  17.729 -0.17 -0.01    +0.025 A  
DOCKED: ATOM      5  C   UNL     1       8.752  23.086  17.335 -0.17 -0.01    +0.026 A  
DOCKED: ATOM      6  C   UNL     1       9.076  22.553  16.093 -0.30 -0.01    +0.048 A  
DOCKED: ATOM      7  C   UNL     1       9.900  23.266  15.223 -0.36 -0.00    +0.026 A  
DOCKED: ATOM      8  C   UNL     1      10.430  24.499  15.610 -0.28 +0.00    +0.025 A  
DOCKED: BRANCH   3  12
DOCKED: ATOM      9  C   UNL     1      12.456  27.818  17.923 -0.18 +0.01    +0.109 C  
DOCKED: ATOM     10  C   UNL     1      12.125  26.398  17.546 -0.13 +0.03    +0.214 C  
DOCKED: ATOM     11  O   UNL     1      12.998  25.537  17.522 -0.15 -0.04    -0.276 OA 
DOCKED: ATOM     12  N   UNL     1      10.786  26.228  17.241 -0.17 +0.10    -0.286 N  
DOCKED: ATOM     13  H   UNL     1      10.224  27.066  17.159 -0.22 -0.21    +0.155 HD 
DOCKED: ENDBRANCH   3  12
DOCKED: ENDBRANCH   1   6
DOCKED: BRANCH   1  14
DOCKED: ATOM     14  S   UNL     1       9.406  19.899  16.073 -0.47 -0.01    +0.072 S  
DOCKED: ATOM     15  O   UNL     1       8.818  19.377  17.288 -0.17 +0.02    -0.150 OA 
DOCKED: ATOM     16  O   UNL     1       9.524  19.078  14.887 -0.30 +0.03    -0.150 OA 
DOCKED: BRANCH  14  17
DOCKED: ATOM     17  C   UNL     1      11.003  20.545  16.492 -0.26 -0.01    +0.109 A  
DOCKED: ATOM     18  C   UNL     1      11.273  20.886  17.822 -0.17 -0.00    +0.030 A  
DOCKED: ATOM     19  C   UNL     1      12.490  21.491  18.140 -0.18 -0.00    +0.022 A  
DOCKED: ATOM     20  C   UNL     1      13.429  21.732  17.135 -0.32 -0.00    +0.041 A  
DOCKED: ATOM     21 CL   UNL     1      14.917  22.501  17.526 -0.44 +0.01    -0.084 Cl 
DOCKED: ATOM     22  C   UNL     1      13.168  21.367  15.813 -0.33 -0.00    +0.022 A  
DOCKED: ATOM     23  C   UNL     1      11.948  20.771  15.486 -0.39 -0.00    +0.030 A  
DOCKED: ENDBRANCH  14  17
DOCKED: ENDBRANCH   1  14
DOCKED: TORSDOF 4
DOCKED: TER
DOCKED: ENDMDL
________________________________________________________________________________


    FINAL DOCKED STATE:
    ________________________


Run:   25 / 50
Time taken for this run:   0.000s

DOCKED: MODEL        25
DOCKED: USER    Run = 25
DOCKED: USER
DOCKED: USER    Estimated Free Energy of Binding    =  -4.56 kcal/mol  [=(1)+(2)+(3)-(4)]
DOCKED: USER
DOCKED: USER    (1) Final Intermolecular Energy     =  -5.75 kcal/mol
DOCKED: USER        vdW + Hbond + desolv Energy     =  -5.60 kcal/mol
DOCKED: USER        Electrostatic Energy            =  -0.15 kcal/mol
DOCKED: USER        Moving Ligand-Fixed Receptor    =  -5.75 kcal/mol
DOCKED: USER        Moving Ligand-Moving Receptor   =  +0.00 kcal/mol
DOCKED: USER    (2) Final Total Internal Energy     =  -1.49 kcal/mol
DOCKED: USER    (3) Torsional Free Energy           =  +1.19 kcal/mol
DOCKED: USER    (4) Unbound System's Energy         =  -1.49 kcal/mol
DOCKED: USER
DOCKED: USER
DOCKED: REMARK  Name = 
DOCKED: REMARK  5 active torsions:
DOCKED: REMARK  status: ('A' for Active; 'I' for Inactive)
DOCKED: REMARK    1  A    between atoms: C_1  and  C_2
DOCKED: REMARK    2  A    between atoms: N_4  and  C_5
DOCKED: REMARK    3  A    between atoms: C_8  and  N_9
DOCKED: REMARK    4  A    between atoms: N_9  and  S_10
DOCKED: REMARK    5  A    between atoms: S_10  and  C_13
DOCKED: REMARK                            x       y       z     vdW  Elec       q    Type
DOCKED: REMARK                         _______ _______ _______ _____ _____    ______ ____
DOCKED: USER                              x       y       z     vdW  Elec       q    Type
DOCKED: USER                           _______ _______ _______ _____ _____    ______ ____
DOCKED: ROOT
DOCKED: ATOM      1  N   UNL     1       8.617  21.346  15.623 -0.26 +0.04    -0.216 N  
DOCKED: ATOM      2  H   UNL     1       8.320  21.294  14.649 -0.06 -0.04    +0.174 HD 
DOCKED: ENDROOT
DOCKED: BRANCH   1   6
DOCKED: ATOM      3  C   UNL     1      10.171  25.048  16.939 -0.18 -0.01    +0.033 A  
DOCKED: ATOM      4  C   UNL     1       9.331  24.298  17.767 -0.17 -0.01    +0.025 A  
DOCKED: ATOM      5  C   UNL     1       8.806  23.076  17.335 -0.17 -0.01    +0.026 A  
DOCKED: ATOM      6  C   UNL     1       9.131  22.593  16.073 -0.30 -0.01    +0.048 A  
DOCKED: ATOM      7  C   UNL     1       9.933  23.352  15.223 -0.37 -0.00    +0.026 A  
DOCKED: ATOM      8  C   UNL     1      10.440  24.582  15.648 -0.24 +0.00    +0.025 A  
DOCKED: BRANCH   3  12
DOCKED: ATOM      9  C   UNL     1      12.413  27.859  18.070 -0.17 +0.00    +0.109 C  
DOCKED: ATOM     10  C   UNL     1      12.108  26.445  17.653 -0.14 +0.02    +0.214 C  
DOCKED: ATOM     11  O   UNL     1      12.995  25.599  17.611 -0.14 -0.04    -0.276 OA 
DOCKED: ATOM     12  N   UNL     1      10.774  26.261  17.335 -0.16 +0.11    -0.286 N  
DOCKED: ATOM     13  H   UNL     1      10.198  27.092  17.273 -0.21 -0.22    +0.155 HD 
DOCKED: ENDBRANCH   3  12
DOCKED: ENDBRANCH   1   6
DOCKED: BRANCH   1  14
DOCKED: ATOM     14  S   UNL     1       9.453  19.938  16.061 -0.47 -0.01    +0.072 S  
DOCKED: ATOM     15  O   UNL     1       8.800  19.422  17.246 -0.18 +0.02    -0.150 OA 
DOCKED: ATOM     16  O   UNL     1       9.626  19.114  14.885 -0.36 +0.03    -0.150 OA 
DOCKED: BRANCH  14  17
DOCKED: ATOM     17  C   UNL     1      11.031  20.574  16.561 -0.25 -0.01    +0.109 A  
DOCKED: ATOM     18  C   UNL     1      11.262  20.837  17.916 -0.16 -0.00    +0.030 A  
DOCKED: ATOM     19  C   UNL     1      12.462  21.435  18.302 -0.17 -0.00    +0.022 A  
DOCKED: ATOM     20  C   UNL     1      13.424  21.745  17.339 -0.30 -0.01    +0.041 A  
DOCKED: ATOM     21 CL   UNL     1      14.892  22.505  17.815 -0.42 +0.01    -0.084 Cl 
DOCKED: ATOM     22  C   UNL     1      13.202  21.458  15.991 -0.33 -0.00    +0.022 A  
DOCKED: ATOM     23  C   UNL     1      11.999  20.870  15.596 -0.40 -0.00    +0.030 A  
DOCKED: ENDBRANCH  14  17
DOCKED: ENDBRANCH   1  14
DOCKED: TORSDOF 4
DOCKED: TER
DOCKED: ENDMDL
________________________________________________________________________________


    FINAL DOCKED STATE:
    ________________________


Run:   26 / 50
Time taken for this run:   0.000s

DOCKED: MODEL        26
DOCKED: USER    Run = 26
DOCKED: USER
DOCKED: USER    Estimated Free Energy of Binding    =  -4.55 kcal/mol  [=(1)+(2)+(3)-(4)]
DOCKED: USER
DOCKED: USER    (1) Final Intermolecular Energy     =  -5.75 kcal/mol
DOCKED: USER        vdW + Hbond + desolv Energy     =  -5.58 kcal/mol
DOCKED: USER        Electrostatic Energy            =  -0.17 kcal/mol
DOCKED: USER        Moving Ligand-Fixed Receptor    =  -5.75 kcal/mol
DOCKED: USER        Moving Ligand-Moving Receptor   =  +0.00 kcal/mol
DOCKED: USER    (2) Final Total Internal Energy     =  -1.48 kcal/mol
DOCKED: USER    (3) Torsional Free Energy           =  +1.19 kcal/mol
DOCKED: USER    (4) Unbound System's Energy         =  -1.48 kcal/mol
DOCKED: USER
DOCKED: USER
DOCKED: REMARK  Name = 
DOCKED: REMARK  5 active torsions:
DOCKED: REMARK  status: ('A' for Active; 'I' for Inactive)
DOCKED: REMARK    1  A    between atoms: C_1  and  C_2
DOCKED: REMARK    2  A    between atoms: N_4  and  C_5
DOCKED: REMARK    3  A    between atoms: C_8  and  N_9
DOCKED: REMARK    4  A    between atoms: N_9  and  S_10
DOCKED: REMARK    5  A    between atoms: S_10  and  C_13
DOCKED: REMARK                            x       y       z     vdW  Elec       q    Type
DOCKED: REMARK                         _______ _______ _______ _____ _____    ______ ____
DOCKED: USER                              x       y       z     vdW  Elec       q    Type
DOCKED: USER                           _______ _______ _______ _____ _____    ______ ____
DOCKED: ROOT
DOCKED: ATOM      1  N   UNL     1       8.627  21.389  15.551 -0.25 +0.04    -0.216 N  
DOCKED: ATOM      2  H   UNL     1       8.405  21.343  14.557 -0.07 -0.04    +0.174 HD 
DOCKED: ENDROOT
DOCKED: BRANCH   1   6
DOCKED: ATOM      3  C   UNL     1      10.079  25.082  17.003 -0.16 -0.01    +0.033 A  
DOCKED: ATOM      4  C   UNL     1       9.203  24.312  17.774 -0.17 -0.01    +0.025 A  
DOCKED: ATOM      5  C   UNL     1       8.711  23.093  17.297 -0.18 -0.01    +0.026 A  
DOCKED: ATOM      6  C   UNL     1       9.106  22.633  16.046 -0.31 -0.01    +0.048 A  
DOCKED: ATOM      7  C   UNL     1       9.945  23.411  15.251 -0.38 -0.00    +0.026 A  
DOCKED: ATOM      8  C   UNL     1      10.419  24.639  15.721 -0.23 -0.00    +0.025 A  
DOCKED: BRANCH   3  12
DOCKED: ATOM      9  C   UNL     1      12.252  27.906  18.232 -0.16 -0.01    +0.109 C  
DOCKED: ATOM     10  C   UNL     1      11.984  26.506  17.748 -0.16 +0.00    +0.214 C  
DOCKED: ATOM     11  O   UNL     1      12.898  25.694  17.643 -0.15 -0.04    -0.276 OA 
DOCKED: ATOM     12  N   UNL     1      10.650  26.293  17.448 -0.14 +0.14    -0.286 N  
DOCKED: ATOM     13  H   UNL     1      10.046  27.106  17.442 -0.19 -0.25    +0.155 HD 
DOCKED: ENDBRANCH   3  12
DOCKED: ENDBRANCH   1   6
DOCKED: BRANCH   1  14
DOCKED: ATOM     14  S   UNL     1       9.426  19.978  16.042 -0.47 -0.01    +0.072 S  
DOCKED: ATOM     15  O   UNL     1       8.743  19.509  17.229 -0.17 +0.02    -0.150 OA 
DOCKED: ATOM     16  O   UNL     1       9.601  19.117  14.892 -0.35 +0.03    -0.150 OA 
DOCKED: BRANCH  14  17
DOCKED: ATOM     17  C   UNL     1      11.008  20.595  16.550 -0.25 -0.01    +0.109 A  
DOCKED: ATOM     18  C   UNL     1      11.234  20.859  17.905 -0.16 -0.00    +0.030 A  
DOCKED: ATOM     19  C   UNL     1      12.440  21.443  18.297 -0.17 -0.00    +0.022 A  
DOCKED: ATOM     20  C   UNL     1      13.412  21.738  17.339 -0.30 -0.01    +0.041 A  
DOCKED: ATOM     21 CL   UNL     1      14.886  22.481  17.822 -0.42 +0.01    -0.084 Cl 
DOCKED: ATOM     22  C   UNL     1      13.194  21.450  15.990 -0.33 -0.00    +0.022 A  
DOCKED: ATOM     23  C   UNL     1      11.986  20.875  15.590 -0.40 -0.00    +0.030 A  
DOCKED: ENDBRANCH  14  17
DOCKED: ENDBRANCH   1  14
DOCKED: TORSDOF 4
DOCKED: TER
DOCKED: ENDMDL
________________________________________________________________________________


    FINAL DOCKED STATE:
    ________________________


Run:   27 / 50
Time taken for this run:   0.000s

DOCKED: MODEL        27
DOCKED: USER    Run = 27
DOCKED: USER
DOCKED: USER    Estimated Free Energy of Binding    =  -4.55 kcal/mol  [=(1)+(2)+(3)-(4)]
DOCKED: USER
DOCKED: USER    (1) Final Intermolecular Energy     =  -5.74 kcal/mol
DOCKED: USER        vdW + Hbond + desolv Energy     =  -5.56 kcal/mol
DOCKED: USER        Electrostatic Energy            =  -0.18 kcal/mol
DOCKED: USER        Moving Ligand-Fixed Receptor    =  -5.74 kcal/mol
DOCKED: USER        Moving Ligand-Moving Receptor   =  +0.00 kcal/mol
DOCKED: USER    (2) Final Total Internal Energy     =  -1.41 kcal/mol
DOCKED: USER    (3) Torsional Free Energy           =  +1.19 kcal/mol
DOCKED: USER    (4) Unbound System's Energy         =  -1.41 kcal/mol
DOCKED: USER
DOCKED: USER
DOCKED: REMARK  Name = 
DOCKED: REMARK  5 active torsions:
DOCKED: REMARK  status: ('A' for Active; 'I' for Inactive)
DOCKED: REMARK    1  A    between atoms: C_1  and  C_2
DOCKED: REMARK    2  A    between atoms: N_4  and  C_5
DOCKED: REMARK    3  A    between atoms: C_8  and  N_9
DOCKED: REMARK    4  A    between atoms: N_9  and  S_10
DOCKED: REMARK    5  A    between atoms: S_10  and  C_13
DOCKED: REMARK                            x       y       z     vdW  Elec       q    Type
DOCKED: REMARK                         _______ _______ _______ _____ _____    ______ ____
DOCKED: USER                              x       y       z     vdW  Elec       q    Type
DOCKED: USER                           _______ _______ _______ _____ _____    ______ ____
DOCKED: ROOT
DOCKED: ATOM      1  N   UNL     1       8.629  21.393  15.593 -0.26 +0.04    -0.216 N  
DOCKED: ATOM      2  H   UNL     1       8.332  21.339  14.620 -0.07 -0.04    +0.174 HD 
DOCKED: ENDROOT
DOCKED: BRANCH   1   6
DOCKED: ATOM      3  C   UNL     1      10.252  25.067  16.907 -0.19 -0.01    +0.033 A  
DOCKED: ATOM      4  C   UNL     1      10.562  24.569  15.638 -0.21 +0.00    +0.025 A  
DOCKED: ATOM      5  C   UNL     1      10.036  23.349  15.200 -0.36 -0.00    +0.026 A  
DOCKED: ATOM      6  C   UNL     1       9.185  22.628  16.028 -0.31 -0.01    +0.048 A  
DOCKED: ATOM      7  C   UNL     1       8.902  23.094  17.311 -0.17 -0.01    +0.026 A  
DOCKED: ATOM      8  C   UNL     1       9.445  24.303  17.755 -0.17 -0.01    +0.025 A  
DOCKED: BRANCH   3  12
DOCKED: ATOM      9  C   UNL     1      12.132  28.021  18.302 -0.16 -0.01    +0.109 C  
DOCKED: ATOM     10  C   UNL     1      11.991  26.602  17.820 -0.17 -0.00    +0.214 C  
DOCKED: ATOM     11  O   UNL     1      12.952  25.839  17.826 -0.14 -0.03    -0.276 OA 
DOCKED: ATOM     12  N   UNL     1      10.708  26.313  17.387 -0.14 +0.13    -0.286 N  
DOCKED: ATOM     13  H   UNL     1      10.067  27.092  17.302 -0.20 -0.25    +0.155 HD 
DOCKED: ENDBRANCH   3  12
DOCKED: ENDBRANCH   1   6
DOCKED: BRANCH   1  14
DOCKED: ATOM     14  S   UNL     1       9.417  19.964  16.050 -0.47 -0.01    +0.072 S  
DOCKED: ATOM     15  O   UNL     1       8.741  19.482  17.236 -0.17 +0.02    -0.150 OA 
DOCKED: ATOM     16  O   UNL     1       9.570  19.122  14.884 -0.34 +0.03    -0.150 OA 
DOCKED: BRANCH  14  17
DOCKED: ATOM     17  C   UNL     1      11.012  20.553  16.553 -0.25 -0.01    +0.109 A  
DOCKED: ATOM     18  C   UNL     1      11.248  20.810  17.908 -0.16 -0.00    +0.030 A  
DOCKED: ATOM     19  C   UNL     1      12.465  21.372  18.296 -0.17 -0.00    +0.022 A  
DOCKED: ATOM     20  C   UNL     1      13.437  21.654  17.334 -0.29 -0.01    +0.041 A  
DOCKED: ATOM     21 CL   UNL     1      14.926  22.370  17.813 -0.42 +0.01    -0.084 Cl 
DOCKED: ATOM     22  C   UNL     1      13.209  21.373  15.986 -0.34 -0.00    +0.022 A  
DOCKED: ATOM     23  C   UNL     1      11.990  20.820  15.590 -0.39 -0.00    +0.030 A  
DOCKED: ENDBRANCH  14  17
DOCKED: ENDBRANCH   1  14
DOCKED: TORSDOF 4
DOCKED: TER
DOCKED: ENDMDL
________________________________________________________________________________


    FINAL DOCKED STATE:
    ________________________


Run:   28 / 50
Time taken for this run:   0.000s

DOCKED: MODEL        28
DOCKED: USER    Run = 28
DOCKED: USER
DOCKED: USER    Estimated Free Energy of Binding    =  -4.55 kcal/mol  [=(1)+(2)+(3)-(4)]
DOCKED: USER
DOCKED: USER    (1) Final Intermolecular Energy     =  -5.74 kcal/mol
DOCKED: USER        vdW + Hbond + desolv Energy     =  -5.56 kcal/mol
DOCKED: USER        Electrostatic Energy            =  -0.18 kcal/mol
DOCKED: USER        Moving Ligand-Fixed Receptor    =  -5.74 kcal/mol
DOCKED: USER        Moving Ligand-Moving Receptor   =  +0.00 kcal/mol
DOCKED: USER    (2) Final Total Internal Energy     =  -1.42 kcal/mol
DOCKED: USER    (3) Torsional Free Energy           =  +1.19 kcal/mol
DOCKED: USER    (4) Unbound System's Energy         =  -1.42 kcal/mol
DOCKED: USER
DOCKED: USER
DOCKED: REMARK  Name = 
DOCKED: REMARK  5 active torsions:
DOCKED: REMARK  status: ('A' for Active; 'I' for Inactive)
DOCKED: REMARK    1  A    between atoms: C_1  and  C_2
DOCKED: REMARK    2  A    between atoms: N_4  and  C_5
DOCKED: REMARK    3  A    between atoms: C_8  and  N_9
DOCKED: REMARK    4  A    between atoms: N_9  and  S_10
DOCKED: REMARK    5  A    between atoms: S_10  and  C_13
DOCKED: REMARK                            x       y       z     vdW  Elec       q    Type
DOCKED: REMARK                         _______ _______ _______ _____ _____    ______ ____
DOCKED: USER                              x       y       z     vdW  Elec       q    Type
DOCKED: USER                           _______ _______ _______ _____ _____    ______ ____
DOCKED: ROOT
DOCKED: ATOM      1  N   UNL     1       8.604  21.244  15.765 -0.25 +0.04    -0.216 N  
DOCKED: ATOM      2  H   UNL     1       8.183  21.175  14.839 -0.01 -0.05    +0.174 HD 
DOCKED: ENDROOT
DOCKED: BRANCH   1   6
DOCKED: ATOM      3  C   UNL     1      10.232  24.986  16.862 -0.19 -0.01    +0.033 A  
DOCKED: ATOM      4  C   UNL     1      10.425  24.480  15.573 -0.28 +0.00    +0.025 A  
DOCKED: ATOM      5  C   UNL     1       9.897  23.238  15.205 -0.35 -0.00    +0.026 A  
DOCKED: ATOM      6  C   UNL     1       9.160  22.502  16.126 -0.30 -0.01    +0.048 A  
DOCKED: ATOM      7  C   UNL     1       8.997  22.978  17.426 -0.16 -0.01    +0.026 A  
DOCKED: ATOM      8  C   UNL     1       9.543  24.209  17.797 -0.16 -0.01    +0.025 A  
DOCKED: BRANCH   3  12
DOCKED: ATOM      9  C   UNL     1      12.131  28.001  18.091 -0.17 -0.01    +0.109 C  
DOCKED: ATOM     10  C   UNL     1      11.984  26.562  17.675 -0.15 +0.01    +0.214 C  
DOCKED: ATOM     11  O   UNL     1      12.946  25.801  17.699 -0.14 -0.03    -0.276 OA 
DOCKED: ATOM     12  N   UNL     1      10.695  26.253  17.278 -0.14 +0.12    -0.286 N  
DOCKED: ATOM     13  H   UNL     1      10.051  27.027  17.169 -0.21 -0.24    +0.155 HD 
DOCKED: ENDBRANCH   3  12
DOCKED: ENDBRANCH   1   6
DOCKED: BRANCH   1  14
DOCKED: ATOM     14  S   UNL     1       9.503  19.850  16.110 -0.47 -0.01    +0.072 S  
DOCKED: ATOM     15  O   UNL     1       8.905  19.255  17.288 -0.18 +0.02    -0.150 OA 
DOCKED: ATOM     16  O   UNL     1       9.669  19.088  14.892 -0.37 +0.03    -0.150 OA 
DOCKED: BRANCH  14  17
DOCKED: ATOM     17  C   UNL     1      11.071  20.520  16.594 -0.25 -0.01    +0.109 A  
DOCKED: ATOM     18  C   UNL     1      11.327  20.747  17.951 -0.16 -0.00    +0.030 A  
DOCKED: ATOM     19  C   UNL     1      12.517  21.370  18.329 -0.17 -0.00    +0.022 A  
DOCKED: ATOM     20  C   UNL     1      13.445  21.742  17.354 -0.30 -0.01    +0.041 A  
DOCKED: ATOM     21 CL   UNL     1      14.900  22.533  17.820 -0.41 +0.01    -0.084 Cl 
DOCKED: ATOM     22  C   UNL     1      13.199  21.491  16.003 -0.33 -0.00    +0.022 A  
DOCKED: ATOM     23  C   UNL     1      12.006  20.878  15.617 -0.40 -0.00    +0.030 A  
DOCKED: ENDBRANCH  14  17
DOCKED: ENDBRANCH   1  14
DOCKED: TORSDOF 4
DOCKED: TER
DOCKED: ENDMDL
________________________________________________________________________________


    FINAL DOCKED STATE:
    ________________________


Run:   29 / 50
Time taken for this run:   0.000s

DOCKED: MODEL        29
DOCKED: USER    Run = 29
DOCKED: USER
DOCKED: USER    Estimated Free Energy of Binding    =  -4.58 kcal/mol  [=(1)+(2)+(3)-(4)]
DOCKED: USER
DOCKED: USER    (1) Final Intermolecular Energy     =  -5.77 kcal/mol
DOCKED: USER        vdW + Hbond + desolv Energy     =  -5.62 kcal/mol
DOCKED: USER        Electrostatic Energy            =  -0.15 kcal/mol
DOCKED: USER        Moving Ligand-Fixed Receptor    =  -5.77 kcal/mol
DOCKED: USER        Moving Ligand-Moving Receptor   =  +0.00 kcal/mol
DOCKED: USER    (2) Final Total Internal Energy     =  -1.49 kcal/mol
DOCKED: USER    (3) Torsional Free Energy           =  +1.19 kcal/mol
DOCKED: USER    (4) Unbound System's Energy         =  -1.49 kcal/mol
DOCKED: USER
DOCKED: USER
DOCKED: REMARK  Name = 
DOCKED: REMARK  5 active torsions:
DOCKED: REMARK  status: ('A' for Active; 'I' for Inactive)
DOCKED: REMARK    1  A    between atoms: C_1  and  C_2
DOCKED: REMARK    2  A    between atoms: N_4  and  C_5
DOCKED: REMARK    3  A    between atoms: C_8  and  N_9
DOCKED: REMARK    4  A    between atoms: N_9  and  S_10
DOCKED: REMARK    5  A    between atoms: S_10  and  C_13
DOCKED: REMARK                            x       y       z     vdW  Elec       q    Type
DOCKED: REMARK                         _______ _______ _______ _____ _____    ______ ____
DOCKED: USER                              x       y       z     vdW  Elec       q    Type
DOCKED: USER                           _______ _______ _______ _____ _____    ______ ____
DOCKED: ROOT
DOCKED: ATOM      1  N   UNL     1       8.558  21.324  15.652 -0.26 +0.05    -0.216 N  
DOCKED: ATOM      2  H   UNL     1       8.235  21.268  14.686 -0.06 -0.05    +0.174 HD 
DOCKED: ENDROOT
DOCKED: BRANCH   1   6
DOCKED: ATOM      3  C   UNL     1      10.151  25.029  16.912 -0.17 -0.01    +0.033 A  
DOCKED: ATOM      4  C   UNL     1       9.289  24.309  17.744 -0.17 -0.01    +0.025 A  
DOCKED: ATOM      5  C   UNL     1       8.751  23.086  17.330 -0.17 -0.01    +0.026 A  
DOCKED: ATOM      6  C   UNL     1       9.085  22.573  16.083 -0.30 -0.01    +0.048 A  
DOCKED: ATOM      7  C   UNL     1       9.910  23.301  15.228 -0.36 -0.00    +0.026 A  
DOCKED: ATOM      8  C   UNL     1      10.430  24.533  15.635 -0.27 +0.00    +0.025 A  
DOCKED: BRANCH   3  12
DOCKED: ATOM      9  C   UNL     1      12.423  27.831  18.007 -0.17 +0.00    +0.109 C  
DOCKED: ATOM     10  C   UNL     1      12.102  26.414  17.611 -0.14 +0.02    +0.214 C  
DOCKED: ATOM     11  O   UNL     1      12.979  25.557  17.585 -0.15 -0.04    -0.276 OA 
DOCKED: ATOM     12  N   UNL     1      10.767  26.241  17.291 -0.16 +0.10    -0.286 N  
DOCKED: ATOM     13  H   UNL     1      10.202  27.078  17.214 -0.21 -0.21    +0.155 HD 
DOCKED: ENDBRANCH   3  12
DOCKED: ENDBRANCH   1   6
DOCKED: BRANCH   1  14
DOCKED: ATOM     14  S   UNL     1       9.405  19.917  16.072 -0.47 -0.01    +0.072 S  
DOCKED: ATOM     15  O   UNL     1       8.784  19.407  17.276 -0.17 +0.02    -0.150 OA 
DOCKED: ATOM     16  O   UNL     1       9.545  19.088  14.895 -0.32 +0.03    -0.150 OA 
DOCKED: BRANCH  14  17
DOCKED: ATOM     17  C   UNL     1      10.997  20.554  16.525 -0.25 -0.01    +0.109 A  
DOCKED: ATOM     18  C   UNL     1      11.243  20.887  17.861 -0.16 -0.00    +0.030 A  
DOCKED: ATOM     19  C   UNL     1      12.456  21.485  18.206 -0.17 -0.00    +0.022 A  
DOCKED: ATOM     20  C   UNL     1      13.415  21.726  17.220 -0.31 -0.00    +0.041 A  
DOCKED: ATOM     21 CL   UNL     1      14.899  22.486  17.643 -0.43 +0.01    -0.084 Cl 
DOCKED: ATOM     22  C   UNL     1      13.177  21.369  15.891 -0.34 -0.00    +0.022 A  
DOCKED: ATOM     23  C   UNL     1      11.962  20.780  15.539 -0.39 -0.00    +0.030 A  
DOCKED: ENDBRANCH  14  17
DOCKED: ENDBRANCH   1  14
DOCKED: TORSDOF 4
DOCKED: TER
DOCKED: ENDMDL
________________________________________________________________________________


    FINAL DOCKED STATE:
    ________________________


Run:   30 / 50
Time taken for this run:   0.000s

DOCKED: MODEL        30
DOCKED: USER    Run = 30
DOCKED: USER
DOCKED: USER    Estimated Free Energy of Binding    =  -4.36 kcal/mol  [=(1)+(2)+(3)-(4)]
DOCKED: USER
DOCKED: USER    (1) Final Intermolecular Energy     =  -5.55 kcal/mol
DOCKED: USER        vdW + Hbond + desolv Energy     =  -5.40 kcal/mol
DOCKED: USER        Electrostatic Energy            =  -0.15 kcal/mol
DOCKED: USER        Moving Ligand-Fixed Receptor    =  -5.55 kcal/mol
DOCKED: USER        Moving Ligand-Moving Receptor   =  +0.00 kcal/mol
DOCKED: USER    (2) Final Total Internal Energy     =  -1.40 kcal/mol
DOCKED: USER    (3) Torsional Free Energy           =  +1.19 kcal/mol
DOCKED: USER    (4) Unbound System's Energy         =  -1.40 kcal/mol
DOCKED: USER
DOCKED: USER
DOCKED: REMARK  Name = 
DOCKED: REMARK  5 active torsions:
DOCKED: REMARK  status: ('A' for Active; 'I' for Inactive)
DOCKED: REMARK    1  A    between atoms: C_1  and  C_2
DOCKED: REMARK    2  A    between atoms: N_4  and  C_5
DOCKED: REMARK    3  A    between atoms: C_8  and  N_9
DOCKED: REMARK    4  A    between atoms: N_9  and  S_10
DOCKED: REMARK    5  A    between atoms: S_10  and  C_13
DOCKED: REMARK                            x       y       z     vdW  Elec       q    Type
DOCKED: REMARK                         _______ _______ _______ _____ _____    ______ ____
DOCKED: USER                              x       y       z     vdW  Elec       q    Type
DOCKED: USER                           _______ _______ _______ _____ _____    ______ ____
DOCKED: ROOT
DOCKED: ATOM      1  N   UNL     1       8.986  20.996  15.923 -0.23 +0.04    -0.216 N  
DOCKED: ATOM      2  H   UNL     1       8.426  20.883  15.079 +0.06 -0.03    +0.174 HD 
DOCKED: ENDROOT
DOCKED: BRANCH   1   6
DOCKED: ATOM      3  C   UNL     1      10.194  24.927  16.896 -0.20 -0.01    +0.033 A  
DOCKED: ATOM      4  C   UNL     1       9.532  24.135  17.840 -0.16 -0.01    +0.025 A  
DOCKED: ATOM      5  C   UNL     1       9.122  22.836  17.522 -0.14 -0.01    +0.026 A  
DOCKED: ATOM      6  C   UNL     1       9.384  22.320  16.259 -0.27 -0.01    +0.048 A  
DOCKED: ATOM      7  C   UNL     1      10.004  23.114  15.297 -0.34 -0.00    +0.026 A  
DOCKED: ATOM      8  C   UNL     1      10.396  24.419  15.609 -0.30 -0.00    +0.025 A  
DOCKED: BRANCH   3  12
DOCKED: ATOM      9  C   UNL     1      12.129  28.022  17.837 -0.18 +0.00    +0.109 C  
DOCKED: ATOM     10  C   UNL     1      11.952  26.544  17.605 -0.15 +0.02    +0.214 C  
DOCKED: ATOM     11  O   UNL     1      12.882  25.766  17.789 -0.14 -0.03    -0.276 OA 
DOCKED: ATOM     12  N   UNL     1      10.678  26.223  17.171 -0.14 +0.11    -0.286 N  
DOCKED: ATOM     13  H   UNL     1      10.071  26.994  16.922 -0.21 -0.22    +0.155 HD 
DOCKED: ENDBRANCH   3  12
DOCKED: ENDBRANCH   1   6
DOCKED: BRANCH   1  14
DOCKED: ATOM     14  S   UNL     1      10.148  19.767  16.030 -0.51 -0.01    +0.072 S  
DOCKED: ATOM     15  O   UNL     1       9.677  18.842  17.039 -0.25 +0.02    -0.150 OA 
DOCKED: ATOM     16  O   UNL     1      10.471  19.314  14.695 -0.38 +0.02    -0.150 OA 
DOCKED: BRANCH  14  17
DOCKED: ATOM     17  C   UNL     1      11.545  20.623  16.706 -0.23 -0.01    +0.109 A  
DOCKED: ATOM     18  C   UNL     1      12.501  21.161  15.838 -0.38 -0.00    +0.030 A  
DOCKED: ATOM     19  C   UNL     1      13.654  21.744  16.365 -0.30 -0.00    +0.022 A  
DOCKED: ATOM     20  C   UNL     1      13.832  21.801  17.749 -0.29 -0.01    +0.041 A  
DOCKED: ATOM     21 CL   UNL     1      15.266  22.498  18.396 -0.34 +0.01    -0.084 Cl 
DOCKED: ATOM     22  C   UNL     1      12.864  21.287  18.614 -0.16 -0.00    +0.022 A  
DOCKED: ATOM     23  C   UNL     1      11.714  20.693  18.092 -0.16 -0.00    +0.030 A  
DOCKED: ENDBRANCH  14  17
DOCKED: ENDBRANCH   1  14
DOCKED: TORSDOF 4
DOCKED: TER
DOCKED: ENDMDL
________________________________________________________________________________


    FINAL DOCKED STATE:
    ________________________


Run:   31 / 50
Time taken for this run:   0.000s

DOCKED: MODEL        31
DOCKED: USER    Run = 31
DOCKED: USER
DOCKED: USER    Estimated Free Energy of Binding    =  -4.57 kcal/mol  [=(1)+(2)+(3)-(4)]
DOCKED: USER
DOCKED: USER    (1) Final Intermolecular Energy     =  -5.76 kcal/mol
DOCKED: USER        vdW + Hbond + desolv Energy     =  -5.58 kcal/mol
DOCKED: USER        Electrostatic Energy            =  -0.18 kcal/mol
DOCKED: USER        Moving Ligand-Fixed Receptor    =  -5.76 kcal/mol
DOCKED: USER        Moving Ligand-Moving Receptor   =  +0.00 kcal/mol
DOCKED: USER    (2) Final Total Internal Energy     =  -1.41 kcal/mol
DOCKED: USER    (3) Torsional Free Energy           =  +1.19 kcal/mol
DOCKED: USER    (4) Unbound System's Energy         =  -1.41 kcal/mol
DOCKED: USER
DOCKED: USER
DOCKED: REMARK  Name = 
DOCKED: REMARK  5 active torsions:
DOCKED: REMARK  status: ('A' for Active; 'I' for Inactive)
DOCKED: REMARK    1  A    between atoms: C_1  and  C_2
DOCKED: REMARK    2  A    between atoms: N_4  and  C_5
DOCKED: REMARK    3  A    between atoms: C_8  and  N_9
DOCKED: REMARK    4  A    between atoms: N_9  and  S_10
DOCKED: REMARK    5  A    between atoms: S_10  and  C_13
DOCKED: REMARK                            x       y       z     vdW  Elec       q    Type
DOCKED: REMARK                         _______ _______ _______ _____ _____    ______ ____
DOCKED: USER                              x       y       z     vdW  Elec       q    Type
DOCKED: USER                           _______ _______ _______ _____ _____    ______ ____
DOCKED: ROOT
DOCKED: ATOM      1  N   UNL     1       8.639  21.305  15.689 -0.25 +0.04    -0.216 N  
DOCKED: ATOM      2  H   UNL     1       8.274  21.244  14.739 -0.03 -0.04    +0.174 HD 
DOCKED: ENDROOT
DOCKED: BRANCH   1   6
DOCKED: ATOM      3  C   UNL     1      10.258  25.020  16.888 -0.20 -0.01    +0.033 A  
DOCKED: ATOM      4  C   UNL     1      10.560  24.488  15.630 -0.24 +0.00    +0.025 A  
DOCKED: ATOM      5  C   UNL     1      10.035  23.255  15.230 -0.36 -0.00    +0.026 A  
DOCKED: ATOM      6  C   UNL     1       9.193  22.554  16.085 -0.30 -0.01    +0.048 A  
DOCKED: ATOM      7  C   UNL     1       8.919  23.053  17.357 -0.17 -0.01    +0.026 A  
DOCKED: ATOM      8  C   UNL     1       9.461  24.276  17.763 -0.17 -0.01    +0.025 A  
DOCKED: BRANCH   3  12
DOCKED: ATOM      9  C   UNL     1      12.136  28.016  18.192 -0.17 -0.01    +0.109 C  
DOCKED: ATOM     10  C   UNL     1      11.996  26.583  17.752 -0.16 +0.01    +0.214 C  
DOCKED: ATOM     11  O   UNL     1      12.958  25.823  17.779 -0.14 -0.03    -0.276 OA 
DOCKED: ATOM     12  N   UNL     1      10.713  26.280  17.330 -0.15 +0.12    -0.286 N  
DOCKED: ATOM     13  H   UNL     1      10.071  27.055  17.223 -0.21 -0.24    +0.155 HD 
DOCKED: ENDBRANCH   3  12
DOCKED: ENDBRANCH   1   6
DOCKED: BRANCH   1  14
DOCKED: ATOM     14  S   UNL     1       9.493  19.896  16.085 -0.47 -0.01    +0.072 S  
DOCKED: ATOM     15  O   UNL     1       8.859  19.348  17.266 -0.18 +0.02    -0.150 OA 
DOCKED: ATOM     16  O   UNL     1       9.659  19.100  14.889 -0.37 +0.03    -0.150 OA 
DOCKED: BRANCH  14  17
DOCKED: ATOM     17  C   UNL     1      11.071  20.535  16.579 -0.25 -0.01    +0.109 A  
DOCKED: ATOM     18  C   UNL     1      11.299  20.822  17.930 -0.16 -0.00    +0.030 A  
DOCKED: ATOM     19  C   UNL     1      12.500  21.422  18.309 -0.17 -0.00    +0.022 A  
DOCKED: ATOM     20  C   UNL     1      13.467  21.711  17.344 -0.30 -0.01    +0.041 A  
DOCKED: ATOM     21 CL   UNL     1      14.936  22.474  17.811 -0.42 +0.01    -0.084 Cl 
DOCKED: ATOM     22  C   UNL     1      13.248  21.401  16.000 -0.33 -0.00    +0.022 A  
DOCKED: ATOM     23  C   UNL     1      12.044  20.810  15.612 -0.39 -0.00    +0.030 A  
DOCKED: ENDBRANCH  14  17
DOCKED: ENDBRANCH   1  14
DOCKED: TORSDOF 4
DOCKED: TER
DOCKED: ENDMDL
________________________________________________________________________________


    FINAL DOCKED STATE:
    ________________________


Run:   32 / 50
Time taken for this run:   0.000s

DOCKED: MODEL        32
DOCKED: USER    Run = 32
DOCKED: USER
DOCKED: USER    Estimated Free Energy of Binding    =  -4.55 kcal/mol  [=(1)+(2)+(3)-(4)]
DOCKED: USER
DOCKED: USER    (1) Final Intermolecular Energy     =  -5.74 kcal/mol
DOCKED: USER        vdW + Hbond + desolv Energy     =  -5.56 kcal/mol
DOCKED: USER        Electrostatic Energy            =  -0.18 kcal/mol
DOCKED: USER        Moving Ligand-Fixed Receptor    =  -5.74 kcal/mol
DOCKED: USER        Moving Ligand-Moving Receptor   =  +0.00 kcal/mol
DOCKED: USER    (2) Final Total Internal Energy     =  -1.41 kcal/mol
DOCKED: USER    (3) Torsional Free Energy           =  +1.19 kcal/mol
DOCKED: USER    (4) Unbound System's Energy         =  -1.41 kcal/mol
DOCKED: USER
DOCKED: USER
DOCKED: REMARK  Name = 
DOCKED: REMARK  5 active torsions:
DOCKED: REMARK  status: ('A' for Active; 'I' for Inactive)
DOCKED: REMARK    1  A    between atoms: C_1  and  C_2
DOCKED: REMARK    2  A    between atoms: N_4  and  C_5
DOCKED: REMARK    3  A    between atoms: C_8  and  N_9
DOCKED: REMARK    4  A    between atoms: N_9  and  S_10
DOCKED: REMARK    5  A    between atoms: S_10  and  C_13
DOCKED: REMARK                            x       y       z     vdW  Elec       q    Type
DOCKED: REMARK                         _______ _______ _______ _____ _____    ______ ____
DOCKED: USER                              x       y       z     vdW  Elec       q    Type
DOCKED: USER                           _______ _______ _______ _____ _____    ______ ____
DOCKED: ROOT
DOCKED: ATOM      1  N   UNL     1       8.606  21.392  15.600 -0.26 +0.05    -0.216 N  
DOCKED: ATOM      2  H   UNL     1       8.304  21.338  14.628 -0.08 -0.04    +0.174 HD 
DOCKED: ENDROOT
DOCKED: BRANCH   1   6
DOCKED: ATOM      3  C   UNL     1      10.243  25.063  16.904 -0.19 -0.01    +0.033 A  
DOCKED: ATOM      4  C   UNL     1      10.544  24.565  15.632 -0.21 +0.00    +0.025 A  
DOCKED: ATOM      5  C   UNL     1      10.013  23.346  15.198 -0.36 -0.00    +0.026 A  
DOCKED: ATOM      6  C   UNL     1       9.166  22.626  16.032 -0.31 -0.01    +0.048 A  
DOCKED: ATOM      7  C   UNL     1       8.893  23.092  17.316 -0.17 -0.01    +0.026 A  
DOCKED: ATOM      8  C   UNL     1       9.441  24.300  17.757 -0.17 -0.01    +0.025 A  
DOCKED: BRANCH   3  12
DOCKED: ATOM      9  C   UNL     1      12.138  28.014  18.285 -0.16 -0.01    +0.109 C  
DOCKED: ATOM     10  C   UNL     1      11.992  26.596  17.802 -0.16 +0.00    +0.214 C  
DOCKED: ATOM     11  O   UNL     1      12.952  25.833  17.798 -0.14 -0.03    -0.276 OA 
DOCKED: ATOM     12  N   UNL     1      10.705  26.308  17.381 -0.14 +0.13    -0.286 N  
DOCKED: ATOM     13  H   UNL     1      10.063  27.087  17.303 -0.20 -0.25    +0.155 HD 
DOCKED: ENDBRANCH   3  12
DOCKED: ENDBRANCH   1   6
DOCKED: BRANCH   1  14
DOCKED: ATOM     14  S   UNL     1       9.393  19.961  16.054 -0.47 -0.01    +0.072 S  
DOCKED: ATOM     15  O   UNL     1       8.720  19.480  17.243 -0.17 +0.02    -0.150 OA 
DOCKED: ATOM     16  O   UNL     1       9.540  19.119  14.887 -0.32 +0.03    -0.150 OA 
DOCKED: BRANCH  14  17
DOCKED: ATOM     17  C   UNL     1      10.990  20.548  16.551 -0.25 -0.01    +0.109 A  
DOCKED: ATOM     18  C   UNL     1      11.233  20.800  17.906 -0.16 -0.00    +0.030 A  
DOCKED: ATOM     19  C   UNL     1      12.452  21.360  18.291 -0.17 -0.00    +0.022 A  
DOCKED: ATOM     20  C   UNL     1      13.420  21.644  17.326 -0.29 -0.01    +0.041 A  
DOCKED: ATOM     21 CL   UNL     1      14.912  22.357  17.800 -0.42 +0.01    -0.084 Cl 
DOCKED: ATOM     22  C   UNL     1      13.186  21.367  15.977 -0.35 -0.00    +0.022 A  
DOCKED: ATOM     23  C   UNL     1      11.964  20.817  15.585 -0.40 -0.00    +0.030 A  
DOCKED: ENDBRANCH  14  17
DOCKED: ENDBRANCH   1  14
DOCKED: TORSDOF 4
DOCKED: TER
DOCKED: ENDMDL
________________________________________________________________________________


    FINAL DOCKED STATE:
    ________________________


Run:   33 / 50
Time taken for this run:   0.000s

DOCKED: MODEL        33
DOCKED: USER    Run = 33
DOCKED: USER
DOCKED: USER    Estimated Free Energy of Binding    =  -4.57 kcal/mol  [=(1)+(2)+(3)-(4)]
DOCKED: USER
DOCKED: USER    (1) Final Intermolecular Energy     =  -5.76 kcal/mol
DOCKED: USER        vdW + Hbond + desolv Energy     =  -5.60 kcal/mol
DOCKED: USER        Electrostatic Energy            =  -0.16 kcal/mol
DOCKED: USER        Moving Ligand-Fixed Receptor    =  -5.76 kcal/mol
DOCKED: USER        Moving Ligand-Moving Receptor   =  +0.00 kcal/mol
DOCKED: USER    (2) Final Total Internal Energy     =  -1.48 kcal/mol
DOCKED: USER    (3) Torsional Free Energy           =  +1.19 kcal/mol
DOCKED: USER    (4) Unbound System's Energy         =  -1.48 kcal/mol
DOCKED: USER
DOCKED: USER
DOCKED: REMARK  Name = 
DOCKED: REMARK  5 active torsions:
DOCKED: REMARK  status: ('A' for Active; 'I' for Inactive)
DOCKED: REMARK    1  A    between atoms: C_1  and  C_2
DOCKED: REMARK    2  A    between atoms: N_4  and  C_5
DOCKED: REMARK    3  A    between atoms: C_8  and  N_9
DOCKED: REMARK    4  A    between atoms: N_9  and  S_10
DOCKED: REMARK    5  A    between atoms: S_10  and  C_13
DOCKED: REMARK                            x       y       z     vdW  Elec       q    Type
DOCKED: REMARK                         _______ _______ _______ _____ _____    ______ ____
DOCKED: USER                              x       y       z     vdW  Elec       q    Type
DOCKED: USER                           _______ _______ _______ _____ _____    ______ ____
DOCKED: ROOT
DOCKED: ATOM      1  N   UNL     1       8.630  21.341  15.609 -0.26 +0.04    -0.216 N  
DOCKED: ATOM      2  H   UNL     1       8.359  21.293  14.628 -0.05 -0.04    +0.174 HD 
DOCKED: ENDROOT
DOCKED: BRANCH   1   6
DOCKED: ATOM      3  C   UNL     1      10.122  25.046  16.988 -0.18 -0.01    +0.033 A  
DOCKED: ATOM      4  C   UNL     1       9.260  24.288  17.787 -0.17 -0.01    +0.025 A  
DOCKED: ATOM      5  C   UNL     1       8.755  23.065  17.333 -0.17 -0.01    +0.026 A  
DOCKED: ATOM      6  C   UNL     1       9.123  22.589  16.080 -0.30 -0.01    +0.048 A  
DOCKED: ATOM      7  C   UNL     1       9.948  23.356  15.259 -0.38 -0.00    +0.026 A  
DOCKED: ATOM      8  C   UNL     1      10.435  24.587  15.705 -0.25 -0.00    +0.025 A  
DOCKED: BRANCH   3  12
DOCKED: ATOM      9  C   UNL     1      12.326  27.878  18.144 -0.17 -0.00    +0.109 C  
DOCKED: ATOM     10  C   UNL     1      12.045  26.472  17.684 -0.15 +0.01    +0.214 C  
DOCKED: ATOM     11  O   UNL     1      12.953  25.654  17.577 -0.15 -0.04    -0.276 OA 
DOCKED: ATOM     12  N   UNL     1      10.705  26.261  17.408 -0.15 +0.13    -0.286 N  
DOCKED: ATOM     13  H   UNL     1      10.105  27.077  17.399 -0.19 -0.23    +0.155 HD 
DOCKED: ENDBRANCH   3  12
DOCKED: ENDBRANCH   1   6
DOCKED: BRANCH   1  14
DOCKED: ATOM     14  S   UNL     1       9.466  19.937  16.060 -0.47 -0.01    +0.072 S  
DOCKED: ATOM     15  O   UNL     1       8.807  19.427  17.244 -0.18 +0.02    -0.150 OA 
DOCKED: ATOM     16  O   UNL     1       9.646  19.106  14.889 -0.37 +0.03    -0.150 OA 
DOCKED: BRANCH  14  17
DOCKED: ATOM     17  C   UNL     1      11.040  20.578  16.564 -0.25 -0.01    +0.109 A  
DOCKED: ATOM     18  C   UNL     1      11.267  20.840  17.920 -0.16 -0.00    +0.030 A  
DOCKED: ATOM     19  C   UNL     1      12.465  21.441  18.309 -0.17 -0.00    +0.022 A  
DOCKED: ATOM     20  C   UNL     1      13.428  21.755  17.348 -0.30 -0.01    +0.041 A  
DOCKED: ATOM     21 CL   UNL     1      14.893  22.519  17.828 -0.41 +0.01    -0.084 Cl 
DOCKED: ATOM     22  C   UNL     1      13.210  21.469  15.999 -0.33 -0.00    +0.022 A  
DOCKED: ATOM     23  C   UNL     1      12.010  20.877  15.602 -0.40 -0.00    +0.030 A  
DOCKED: ENDBRANCH  14  17
DOCKED: ENDBRANCH   1  14
DOCKED: TORSDOF 4
DOCKED: TER
DOCKED: ENDMDL
________________________________________________________________________________


    FINAL DOCKED STATE:
    ________________________


Run:   34 / 50
Time taken for this run:   0.000s

DOCKED: MODEL        34
DOCKED: USER    Run = 34
DOCKED: USER
DOCKED: USER    Estimated Free Energy of Binding    =  -4.57 kcal/mol  [=(1)+(2)+(3)-(4)]
DOCKED: USER
DOCKED: USER    (1) Final Intermolecular Energy     =  -5.77 kcal/mol
DOCKED: USER        vdW + Hbond + desolv Energy     =  -5.61 kcal/mol
DOCKED: USER        Electrostatic Energy            =  -0.15 kcal/mol
DOCKED: USER        Moving Ligand-Fixed Receptor    =  -5.77 kcal/mol
DOCKED: USER        Moving Ligand-Moving Receptor   =  +0.00 kcal/mol
DOCKED: USER    (2) Final Total Internal Energy     =  -1.48 kcal/mol
DOCKED: USER    (3) Torsional Free Energy           =  +1.19 kcal/mol
DOCKED: USER    (4) Unbound System's Energy         =  -1.48 kcal/mol
DOCKED: USER
DOCKED: USER
DOCKED: REMARK  Name = 
DOCKED: REMARK  5 active torsions:
DOCKED: REMARK  status: ('A' for Active; 'I' for Inactive)
DOCKED: REMARK    1  A    between atoms: C_1  and  C_2
DOCKED: REMARK    2  A    between atoms: N_4  and  C_5
DOCKED: REMARK    3  A    between atoms: C_8  and  N_9
DOCKED: REMARK    4  A    between atoms: N_9  and  S_10
DOCKED: REMARK    5  A    between atoms: S_10  and  C_13
DOCKED: REMARK                            x       y       z     vdW  Elec       q    Type
DOCKED: REMARK                         _______ _______ _______ _____ _____    ______ ____
DOCKED: USER                              x       y       z     vdW  Elec       q    Type
DOCKED: USER                           _______ _______ _______ _____ _____    ______ ____
DOCKED: ROOT
DOCKED: ATOM      1  N   UNL     1       8.564  21.356  15.614 -0.26 +0.05    -0.216 N  
DOCKED: ATOM      2  H   UNL     1       8.262  21.302  14.642 -0.08 -0.05    +0.174 HD 
DOCKED: ENDROOT
DOCKED: BRANCH   1   6
DOCKED: ATOM      3  C   UNL     1      10.147  25.055  16.905 -0.16 -0.01    +0.033 A  
DOCKED: ATOM      4  C   UNL     1       9.280  24.330  17.728 -0.17 -0.01    +0.025 A  
DOCKED: ATOM      5  C   UNL     1       8.745  23.109  17.304 -0.18 -0.01    +0.026 A  
DOCKED: ATOM      6  C   UNL     1       9.088  22.603  16.055 -0.31 -0.01    +0.048 A  
DOCKED: ATOM      7  C   UNL     1       9.917  23.337  15.210 -0.36 -0.00    +0.026 A  
DOCKED: ATOM      8  C   UNL     1      10.435  24.566  15.627 -0.25 +0.00    +0.025 A  
DOCKED: BRANCH   3  12
DOCKED: ATOM      9  C   UNL     1      12.414  27.854  18.018 -0.17 +0.00    +0.109 C  
DOCKED: ATOM     10  C   UNL     1      12.097  26.441  17.607 -0.14 +0.02    +0.214 C  
DOCKED: ATOM     11  O   UNL     1      12.978  25.589  17.563 -0.15 -0.04    -0.276 OA 
DOCKED: ATOM     12  N   UNL     1      10.760  26.265  17.295 -0.16 +0.11    -0.286 N  
DOCKED: ATOM     13  H   UNL     1      10.190  27.100  17.233 -0.22 -0.22    +0.155 HD 
DOCKED: ENDBRANCH   3  12
DOCKED: ENDBRANCH   1   6
DOCKED: BRANCH   1  14
DOCKED: ATOM     14  S   UNL     1       9.395  19.946  16.053 -0.47 -0.01    +0.072 S  
DOCKED: ATOM     15  O   UNL     1       8.763  19.455  17.260 -0.17 +0.02    -0.150 OA 
DOCKED: ATOM     16  O   UNL     1       9.533  19.103  14.886 -0.32 +0.03    -0.150 OA 
DOCKED: BRANCH  14  17
DOCKED: ATOM     17  C   UNL     1      10.990  20.572  16.508 -0.26 -0.01    +0.109 A  
DOCKED: ATOM     18  C   UNL     1      11.241  20.889  17.848 -0.16 -0.00    +0.030 A  
DOCKED: ATOM     19  C   UNL     1      12.458  21.479  18.195 -0.17 -0.00    +0.022 A  
DOCKED: ATOM     20  C   UNL     1      13.415  21.727  17.209 -0.31 -0.00    +0.041 A  
DOCKED: ATOM     21 CL   UNL     1      14.903  22.477  17.636 -0.43 +0.01    -0.084 Cl 
DOCKED: ATOM     22  C   UNL     1      13.172  21.385  15.877 -0.33 -0.00    +0.022 A  
DOCKED: ATOM     23  C   UNL     1      11.953  20.805  15.522 -0.39 -0.00    +0.030 A  
DOCKED: ENDBRANCH  14  17
DOCKED: ENDBRANCH   1  14
DOCKED: TORSDOF 4
DOCKED: TER
DOCKED: ENDMDL
________________________________________________________________________________


    FINAL DOCKED STATE:
    ________________________


Run:   35 / 50
Time taken for this run:   0.000s

DOCKED: MODEL        35
DOCKED: USER    Run = 35
DOCKED: USER
DOCKED: USER    Estimated Free Energy of Binding    =  -4.57 kcal/mol  [=(1)+(2)+(3)-(4)]
DOCKED: USER
DOCKED: USER    (1) Final Intermolecular Energy     =  -5.77 kcal/mol
DOCKED: USER        vdW + Hbond + desolv Energy     =  -5.62 kcal/mol
DOCKED: USER        Electrostatic Energy            =  -0.15 kcal/mol
DOCKED: USER        Moving Ligand-Fixed Receptor    =  -5.77 kcal/mol
DOCKED: USER        Moving Ligand-Moving Receptor   =  +0.00 kcal/mol
DOCKED: USER    (2) Final Total Internal Energy     =  -1.49 kcal/mol
DOCKED: USER    (3) Torsional Free Energy           =  +1.19 kcal/mol
DOCKED: USER    (4) Unbound System's Energy         =  -1.49 kcal/mol
DOCKED: USER
DOCKED: USER
DOCKED: REMARK  Name = 
DOCKED: REMARK  5 active torsions:
DOCKED: REMARK  status: ('A' for Active; 'I' for Inactive)
DOCKED: REMARK    1  A    between atoms: C_1  and  C_2
DOCKED: REMARK    2  A    between atoms: N_4  and  C_5
DOCKED: REMARK    3  A    between atoms: C_8  and  N_9
DOCKED: REMARK    4  A    between atoms: N_9  and  S_10
DOCKED: REMARK    5  A    between atoms: S_10  and  C_13
DOCKED: REMARK                            x       y       z     vdW  Elec       q    Type
DOCKED: REMARK                         _______ _______ _______ _____ _____    ______ ____
DOCKED: USER                              x       y       z     vdW  Elec       q    Type
DOCKED: USER                           _______ _______ _______ _____ _____    ______ ____
DOCKED: ROOT
DOCKED: ATOM      1  N   UNL     1       8.582  21.312  15.644 -0.26 +0.04    -0.216 N  
DOCKED: ATOM      2  H   UNL     1       8.257  21.256  14.679 -0.05 -0.05    +0.174 HD 
DOCKED: ENDROOT
DOCKED: BRANCH   1   6
DOCKED: ATOM      3  C   UNL     1      10.168  25.020  16.906 -0.18 -0.01    +0.033 A  
DOCKED: ATOM      4  C   UNL     1       9.315  24.293  17.742 -0.17 -0.01    +0.025 A  
DOCKED: ATOM      5  C   UNL     1       8.779  23.069  17.327 -0.17 -0.01    +0.026 A  
DOCKED: ATOM      6  C   UNL     1       9.107  22.561  16.076 -0.30 -0.01    +0.048 A  
DOCKED: ATOM      7  C   UNL     1       9.922  23.297  15.218 -0.36 -0.00    +0.026 A  
DOCKED: ATOM      8  C   UNL     1      10.440  24.529  15.625 -0.26 +0.00    +0.025 A  
DOCKED: BRANCH   3  12
DOCKED: ATOM      9  C   UNL     1      12.433  27.826  18.001 -0.17 +0.01    +0.109 C  
DOCKED: ATOM     10  C   UNL     1      12.115  26.409  17.605 -0.14 +0.02    +0.214 C  
DOCKED: ATOM     11  O   UNL     1      12.994  25.553  17.580 -0.15 -0.04    -0.276 OA 
DOCKED: ATOM     12  N   UNL     1      10.781  26.233  17.284 -0.16 +0.10    -0.286 N  
DOCKED: ATOM     13  H   UNL     1      10.214  27.069  17.207 -0.21 -0.21    +0.155 HD 
DOCKED: ENDBRANCH   3  12
DOCKED: ENDBRANCH   1   6
DOCKED: BRANCH   1  14
DOCKED: ATOM     14  S   UNL     1       9.434  19.907  16.061 -0.47 -0.01    +0.072 S  
DOCKED: ATOM     15  O   UNL     1       8.815  19.392  17.265 -0.18 +0.02    -0.150 OA 
DOCKED: ATOM     16  O   UNL     1       9.575  19.080  14.882 -0.32 +0.03    -0.150 OA 
DOCKED: BRANCH  14  17
DOCKED: ATOM     17  C   UNL     1      11.023  20.547  16.514 -0.26 -0.01    +0.109 A  
DOCKED: ATOM     18  C   UNL     1      11.271  20.875  17.852 -0.16 -0.00    +0.030 A  
DOCKED: ATOM     19  C   UNL     1      12.482  21.476  18.196 -0.17 -0.00    +0.022 A  
DOCKED: ATOM     20  C   UNL     1      13.439  21.725  17.210 -0.31 -0.00    +0.041 A  
DOCKED: ATOM     21 CL   UNL     1      14.920  22.489  17.634 -0.43 +0.01    -0.084 Cl 
DOCKED: ATOM     22  C   UNL     1      13.200  21.374  15.880 -0.33 -0.00    +0.022 A  
DOCKED: ATOM     23  C   UNL     1      11.986  20.782  15.527 -0.39 -0.00    +0.030 A  
DOCKED: ENDBRANCH  14  17
DOCKED: ENDBRANCH   1  14
DOCKED: TORSDOF 4
DOCKED: TER
DOCKED: ENDMDL
________________________________________________________________________________


    FINAL DOCKED STATE:
    ________________________


Run:   36 / 50
Time taken for this run:   0.000s

DOCKED: MODEL        36
DOCKED: USER    Run = 36
DOCKED: USER
DOCKED: USER    Estimated Free Energy of Binding    =  -4.42 kcal/mol  [=(1)+(2)+(3)-(4)]
DOCKED: USER
DOCKED: USER    (1) Final Intermolecular Energy     =  -5.62 kcal/mol
DOCKED: USER        vdW + Hbond + desolv Energy     =  -5.47 kcal/mol
DOCKED: USER        Electrostatic Energy            =  -0.15 kcal/mol
DOCKED: USER        Moving Ligand-Fixed Receptor    =  -5.62 kcal/mol
DOCKED: USER        Moving Ligand-Moving Receptor   =  +0.00 kcal/mol
DOCKED: USER    (2) Final Total Internal Energy     =  -1.42 kcal/mol
DOCKED: USER    (3) Torsional Free Energy           =  +1.19 kcal/mol
DOCKED: USER    (4) Unbound System's Energy         =  -1.42 kcal/mol
DOCKED: USER
DOCKED: USER
DOCKED: REMARK  Name = 
DOCKED: REMARK  5 active torsions:
DOCKED: REMARK  status: ('A' for Active; 'I' for Inactive)
DOCKED: REMARK    1  A    between atoms: C_1  and  C_2
DOCKED: REMARK    2  A    between atoms: N_4  and  C_5
DOCKED: REMARK    3  A    between atoms: C_8  and  N_9
DOCKED: REMARK    4  A    between atoms: N_9  and  S_10
DOCKED: REMARK    5  A    between atoms: S_10  and  C_13
DOCKED: REMARK                            x       y       z     vdW  Elec       q    Type
DOCKED: REMARK                         _______ _______ _______ _____ _____    ______ ____
DOCKED: USER                              x       y       z     vdW  Elec       q    Type
DOCKED: USER                           _______ _______ _______ _____ _____    ______ ____
DOCKED: ROOT
DOCKED: ATOM      1  N   UNL     1       8.835  21.063  16.109 -0.21 +0.04    -0.216 N  
DOCKED: ATOM      2  H   UNL     1       8.213  20.960  15.307 +0.06 -0.04    +0.174 HD 
DOCKED: ENDROOT
DOCKED: BRANCH   1   6
DOCKED: ATOM      3  C   UNL     1      10.366  24.929  16.863 -0.23 -0.01    +0.033 A  
DOCKED: ATOM      4  C   UNL     1      10.434  24.378  15.580 -0.32 +0.00    +0.025 A  
DOCKED: ATOM      5  C   UNL     1       9.937  23.096  15.324 -0.34 -0.00    +0.026 A  
DOCKED: ATOM      6  C   UNL     1       9.358  22.363  16.354 -0.26 -0.01    +0.048 A  
DOCKED: ATOM      7  C   UNL     1       9.323  22.884  17.645 -0.13 -0.01    +0.026 A  
DOCKED: ATOM      8  C   UNL     1       9.838  24.157  17.903 -0.15 -0.01    +0.025 A  
DOCKED: BRANCH   3  12
DOCKED: ATOM      9  C   UNL     1      12.188  28.068  17.880 -0.18 +0.00    +0.109 C  
DOCKED: ATOM     10  C   UNL     1      12.068  26.593  17.603 -0.13 +0.02    +0.214 C  
DOCKED: ATOM     11  O   UNL     1      13.031  25.847  17.750 -0.14 -0.03    -0.276 OA 
DOCKED: ATOM     12  N   UNL     1      10.802  26.234  17.174 -0.17 +0.09    -0.286 N  
DOCKED: ATOM     13  H   UNL     1      10.161  26.987  16.957 -0.21 -0.20    +0.155 HD 
DOCKED: ENDBRANCH   3  12
DOCKED: ENDBRANCH   1   6
DOCKED: BRANCH   1  14
DOCKED: ATOM     14  S   UNL     1       9.900  19.748  16.202 -0.48 -0.01    +0.072 S  
DOCKED: ATOM     15  O   UNL     1       9.460  18.939  17.319 -0.21 +0.02    -0.150 OA 
DOCKED: ATOM     16  O   UNL     1      10.053  19.177  14.881 -0.46 +0.02    -0.150 OA 
DOCKED: BRANCH  14  17
DOCKED: ATOM     17  C   UNL     1      11.421  20.525  16.677 -0.22 -0.01    +0.109 A  
DOCKED: ATOM     18  C   UNL     1      11.699  20.706  18.037 -0.16 -0.00    +0.030 A  
DOCKED: ATOM     19  C   UNL     1      12.844  21.410  18.414 -0.18 -0.00    +0.022 A  
DOCKED: ATOM     20  C   UNL     1      13.707  21.907  17.435 -0.30 -0.01    +0.041 A  
DOCKED: ATOM     21 CL   UNL     1      15.103  22.795  17.903 -0.39 +0.01    -0.084 Cl 
DOCKED: ATOM     22  C   UNL     1      13.441  21.702  16.080 -0.23 -0.00    +0.022 A  
DOCKED: ATOM     23  C   UNL     1      12.292  21.008  15.696 -0.41 -0.00    +0.030 A  
DOCKED: ENDBRANCH  14  17
DOCKED: ENDBRANCH   1  14
DOCKED: TORSDOF 4
DOCKED: TER
DOCKED: ENDMDL
________________________________________________________________________________


    FINAL DOCKED STATE:
    ________________________


Run:   37 / 50
Time taken for this run:   0.000s

DOCKED: MODEL        37
DOCKED: USER    Run = 37
DOCKED: USER
DOCKED: USER    Estimated Free Energy of Binding    =  -4.57 kcal/mol  [=(1)+(2)+(3)-(4)]
DOCKED: USER
DOCKED: USER    (1) Final Intermolecular Energy     =  -5.76 kcal/mol
DOCKED: USER        vdW + Hbond + desolv Energy     =  -5.60 kcal/mol
DOCKED: USER        Electrostatic Energy            =  -0.17 kcal/mol
DOCKED: USER        Moving Ligand-Fixed Receptor    =  -5.76 kcal/mol
DOCKED: USER        Moving Ligand-Moving Receptor   =  +0.00 kcal/mol
DOCKED: USER    (2) Final Total Internal Energy     =  -1.48 kcal/mol
DOCKED: USER    (3) Torsional Free Energy           =  +1.19 kcal/mol
DOCKED: USER    (4) Unbound System's Energy         =  -1.48 kcal/mol
DOCKED: USER
DOCKED: USER
DOCKED: REMARK  Name = 
DOCKED: REMARK  5 active torsions:
DOCKED: REMARK  status: ('A' for Active; 'I' for Inactive)
DOCKED: REMARK    1  A    between atoms: C_1  and  C_2
DOCKED: REMARK    2  A    between atoms: N_4  and  C_5
DOCKED: REMARK    3  A    between atoms: C_8  and  N_9
DOCKED: REMARK    4  A    between atoms: N_9  and  S_10
DOCKED: REMARK    5  A    between atoms: S_10  and  C_13
DOCKED: REMARK                            x       y       z     vdW  Elec       q    Type
DOCKED: REMARK                         _______ _______ _______ _____ _____    ______ ____
DOCKED: USER                              x       y       z     vdW  Elec       q    Type
DOCKED: USER                           _______ _______ _______ _____ _____    ______ ____
DOCKED: ROOT
DOCKED: ATOM      1  N   UNL     1       8.622  21.345  15.593 -0.26 +0.04    -0.216 N  
DOCKED: ATOM      2  H   UNL     1       8.361  21.298  14.609 -0.06 -0.04    +0.174 HD 
DOCKED: ENDROOT
DOCKED: BRANCH   1   6
DOCKED: ATOM      3  C   UNL     1      10.104  25.047  16.991 -0.17 -0.01    +0.033 A  
DOCKED: ATOM      4  C   UNL     1       9.239  24.285  17.783 -0.17 -0.01    +0.025 A  
DOCKED: ATOM      5  C   UNL     1       8.738  23.064  17.324 -0.17 -0.01    +0.026 A  
DOCKED: ATOM      6  C   UNL     1       9.112  22.592  16.071 -0.30 -0.01    +0.048 A  
DOCKED: ATOM      7  C   UNL     1       9.939  23.362  15.256 -0.38 -0.00    +0.026 A  
DOCKED: ATOM      8  C   UNL     1      10.423  24.592  15.708 -0.25 -0.00    +0.025 A  
DOCKED: BRANCH   3  12
DOCKED: ATOM      9  C   UNL     1      12.299  27.875  18.171 -0.17 -0.00    +0.109 C  
DOCKED: ATOM     10  C   UNL     1      12.021  26.470  17.708 -0.15 +0.01    +0.214 C  
DOCKED: ATOM     11  O   UNL     1      12.930  25.651  17.609 -0.15 -0.04    -0.276 OA 
DOCKED: ATOM     12  N   UNL     1      10.684  26.260  17.418 -0.15 +0.13    -0.286 N  
DOCKED: ATOM     13  H   UNL     1      10.085  27.077  17.403 -0.19 -0.24    +0.155 HD 
DOCKED: ENDBRANCH   3  12
DOCKED: ENDBRANCH   1   6
DOCKED: BRANCH   1  14
DOCKED: ATOM     14  S   UNL     1       9.451  19.939  16.051 -0.47 -0.01    +0.072 S  
DOCKED: ATOM     15  O   UNL     1       8.787  19.437  17.236 -0.18 +0.02    -0.150 OA 
DOCKED: ATOM     16  O   UNL     1       9.631  19.103  14.885 -0.36 +0.03    -0.150 OA 
DOCKED: BRANCH  14  17
DOCKED: ATOM     17  C   UNL     1      11.027  20.575  16.557 -0.25 -0.01    +0.109 A  
DOCKED: ATOM     18  C   UNL     1      11.250  20.846  17.912 -0.16 -0.00    +0.030 A  
DOCKED: ATOM     19  C   UNL     1      12.449  21.444  18.301 -0.17 -0.00    +0.022 A  
DOCKED: ATOM     20  C   UNL     1      13.418  21.747  17.342 -0.30 -0.01    +0.041 A  
DOCKED: ATOM     21 CL   UNL     1      14.884  22.506  17.822 -0.42 +0.01    -0.084 Cl 
DOCKED: ATOM     22  C   UNL     1      13.203  21.451  15.994 -0.33 -0.00    +0.022 A  
DOCKED: ATOM     23  C   UNL     1      12.001  20.863  15.596 -0.40 -0.00    +0.030 A  
DOCKED: ENDBRANCH  14  17
DOCKED: ENDBRANCH   1  14
DOCKED: TORSDOF 4
DOCKED: TER
DOCKED: ENDMDL
________________________________________________________________________________


    FINAL DOCKED STATE:
    ________________________


Run:   38 / 50
Time taken for this run:   0.000s

DOCKED: MODEL        38
DOCKED: USER    Run = 38
DOCKED: USER
DOCKED: USER    Estimated Free Energy of Binding    =  -4.56 kcal/mol  [=(1)+(2)+(3)-(4)]
DOCKED: USER
DOCKED: USER    (1) Final Intermolecular Energy     =  -5.75 kcal/mol
DOCKED: USER        vdW + Hbond + desolv Energy     =  -5.61 kcal/mol
DOCKED: USER        Electrostatic Energy            =  -0.15 kcal/mol
DOCKED: USER        Moving Ligand-Fixed Receptor    =  -5.75 kcal/mol
DOCKED: USER        Moving Ligand-Moving Receptor   =  +0.00 kcal/mol
DOCKED: USER    (2) Final Total Internal Energy     =  -1.49 kcal/mol
DOCKED: USER    (3) Torsional Free Energy           =  +1.19 kcal/mol
DOCKED: USER    (4) Unbound System's Energy         =  -1.49 kcal/mol
DOCKED: USER
DOCKED: USER
DOCKED: REMARK  Name = 
DOCKED: REMARK  5 active torsions:
DOCKED: REMARK  status: ('A' for Active; 'I' for Inactive)
DOCKED: REMARK    1  A    between atoms: C_1  and  C_2
DOCKED: REMARK    2  A    between atoms: N_4  and  C_5
DOCKED: REMARK    3  A    between atoms: C_8  and  N_9
DOCKED: REMARK    4  A    between atoms: N_9  and  S_10
DOCKED: REMARK    5  A    between atoms: S_10  and  C_13
DOCKED: REMARK                            x       y       z     vdW  Elec       q    Type
DOCKED: REMARK                         _______ _______ _______ _____ _____    ______ ____
DOCKED: USER                              x       y       z     vdW  Elec       q    Type
DOCKED: USER                           _______ _______ _______ _____ _____    ______ ____
DOCKED: ROOT
DOCKED: ATOM      1  N   UNL     1       8.581  21.266  15.727 -0.25 +0.04    -0.216 N  
DOCKED: ATOM      2  H   UNL     1       8.205  21.206  14.781 -0.03 -0.05    +0.174 HD 
DOCKED: ENDROOT
DOCKED: BRANCH   1   6
DOCKED: ATOM      3  C   UNL     1      10.176  24.998  16.905 -0.18 -0.01    +0.033 A  
DOCKED: ATOM      4  C   UNL     1       9.350  24.275  17.771 -0.17 -0.01    +0.025 A  
DOCKED: ATOM      5  C   UNL     1       8.811  23.044  17.385 -0.16 -0.01    +0.026 A  
DOCKED: ATOM      6  C   UNL     1       9.109  22.524  16.131 -0.30 -0.01    +0.048 A  
DOCKED: ATOM      7  C   UNL     1       9.897  23.254  15.243 -0.37 -0.00    +0.026 A  
DOCKED: ATOM      8  C   UNL     1      10.418  24.494  15.623 -0.28 +0.00    +0.025 A  
DOCKED: BRANCH   3  12
DOCKED: ATOM      9  C   UNL     1      12.448  27.827  17.928 -0.18 +0.01    +0.109 C  
DOCKED: ATOM     10  C   UNL     1      12.128  26.401  17.565 -0.13 +0.03    +0.214 C  
DOCKED: ATOM     11  O   UNL     1      13.006  25.544  17.556 -0.15 -0.04    -0.276 OA 
DOCKED: ATOM     12  N   UNL     1      10.791  26.219  17.254 -0.17 +0.09    -0.286 N  
DOCKED: ATOM     13  H   UNL     1      10.225  27.053  17.160 -0.22 -0.20    +0.155 HD 
DOCKED: ENDBRANCH   3  12
DOCKED: ENDBRANCH   1   6
DOCKED: BRANCH   1  14
DOCKED: ATOM     14  S   UNL     1       9.476  19.874  16.095 -0.47 -0.01    +0.072 S  
DOCKED: ATOM     15  O   UNL     1       8.867  19.294  17.273 -0.18 +0.02    -0.150 OA 
DOCKED: ATOM     16  O   UNL     1       9.651  19.100  14.886 -0.37 +0.03    -0.150 OA 
DOCKED: BRANCH  14  17
DOCKED: ATOM     17  C   UNL     1      11.041  20.548  16.585 -0.25 -0.01    +0.109 A  
DOCKED: ATOM     18  C   UNL     1      11.274  20.815  17.939 -0.16 -0.00    +0.030 A  
DOCKED: ATOM     19  C   UNL     1      12.463  21.442  18.317 -0.17 -0.00    +0.022 A  
DOCKED: ATOM     20  C   UNL     1      13.411  21.776  17.348 -0.30 -0.00    +0.041 A  
DOCKED: ATOM     21 CL   UNL     1      14.863  22.570  17.814 -0.41 +0.01    -0.084 Cl 
DOCKED: ATOM     22  C   UNL     1      13.186  21.484  16.001 -0.33 -0.00    +0.022 A  
DOCKED: ATOM     23  C   UNL     1      11.995  20.867  15.614 -0.40 -0.00    +0.030 A  
DOCKED: ENDBRANCH  14  17
DOCKED: ENDBRANCH   1  14
DOCKED: TORSDOF 4
DOCKED: TER
DOCKED: ENDMDL
________________________________________________________________________________


    FINAL DOCKED STATE:
    ________________________


Run:   39 / 50
Time taken for this run:   0.000s

DOCKED: MODEL        39
DOCKED: USER    Run = 39
DOCKED: USER
DOCKED: USER    Estimated Free Energy of Binding    =  -4.57 kcal/mol  [=(1)+(2)+(3)-(4)]
DOCKED: USER
DOCKED: USER    (1) Final Intermolecular Energy     =  -5.76 kcal/mol
DOCKED: USER        vdW + Hbond + desolv Energy     =  -5.59 kcal/mol
DOCKED: USER        Electrostatic Energy            =  -0.17 kcal/mol
DOCKED: USER        Moving Ligand-Fixed Receptor    =  -5.76 kcal/mol
DOCKED: USER        Moving Ligand-Moving Receptor   =  +0.00 kcal/mol
DOCKED: USER    (2) Final Total Internal Energy     =  -1.48 kcal/mol
DOCKED: USER    (3) Torsional Free Energy           =  +1.19 kcal/mol
DOCKED: USER    (4) Unbound System's Energy         =  -1.48 kcal/mol
DOCKED: USER
DOCKED: USER
DOCKED: REMARK  Name = 
DOCKED: REMARK  5 active torsions:
DOCKED: REMARK  status: ('A' for Active; 'I' for Inactive)
DOCKED: REMARK    1  A    between atoms: C_1  and  C_2
DOCKED: REMARK    2  A    between atoms: N_4  and  C_5
DOCKED: REMARK    3  A    between atoms: C_8  and  N_9
DOCKED: REMARK    4  A    between atoms: N_9  and  S_10
DOCKED: REMARK    5  A    between atoms: S_10  and  C_13
DOCKED: REMARK                            x       y       z     vdW  Elec       q    Type
DOCKED: REMARK                         _______ _______ _______ _____ _____    ______ ____
DOCKED: USER                              x       y       z     vdW  Elec       q    Type
DOCKED: USER                           _______ _______ _______ _____ _____    ______ ____
DOCKED: ROOT
DOCKED: ATOM      1  N   UNL     1       8.616  21.364  15.585 -0.26 +0.04    -0.216 N  
DOCKED: ATOM      2  H   UNL     1       8.362  21.320  14.599 -0.07 -0.04    +0.174 HD 
DOCKED: ENDROOT
DOCKED: BRANCH   1   6
DOCKED: ATOM      3  C   UNL     1      10.103  25.058  17.000 -0.17 -0.01    +0.033 A  
DOCKED: ATOM      4  C   UNL     1       9.227  24.299  17.784 -0.17 -0.01    +0.025 A  
DOCKED: ATOM      5  C   UNL     1       8.724  23.080  17.318 -0.17 -0.01    +0.026 A  
DOCKED: ATOM      6  C   UNL     1       9.107  22.609  16.068 -0.30 -0.01    +0.048 A  
DOCKED: ATOM      7  C   UNL     1       9.945  23.376  15.261 -0.38 -0.00    +0.026 A  
DOCKED: ATOM      8  C   UNL     1      10.431  24.603  15.719 -0.25 -0.00    +0.025 A  
DOCKED: BRANCH   3  12
DOCKED: ATOM      9  C   UNL     1      12.303  27.877  18.192 -0.17 -0.00    +0.109 C  
DOCKED: ATOM     10  C   UNL     1      12.023  26.474  17.720 -0.15 +0.01    +0.214 C  
DOCKED: ATOM     11  O   UNL     1      12.931  25.656  17.614 -0.15 -0.04    -0.276 OA 
DOCKED: ATOM     12  N   UNL     1      10.685  26.268  17.433 -0.15 +0.13    -0.286 N  
DOCKED: ATOM     13  H   UNL     1      10.086  27.085  17.426 -0.19 -0.24    +0.155 HD 
DOCKED: ENDBRANCH   3  12
DOCKED: ENDBRANCH   1   6
DOCKED: BRANCH   1  14
DOCKED: ATOM     14  S   UNL     1       9.435  19.954  16.047 -0.47 -0.01    +0.072 S  
DOCKED: ATOM     15  O   UNL     1       8.767  19.459  17.232 -0.18 +0.02    -0.150 OA 
DOCKED: ATOM     16  O   UNL     1       9.610  19.114  14.882 -0.35 +0.03    -0.150 OA 
DOCKED: BRANCH  14  17
DOCKED: ATOM     17  C   UNL     1      11.015  20.582  16.552 -0.25 -0.01    +0.109 A  
DOCKED: ATOM     18  C   UNL     1      11.237  20.858  17.905 -0.16 -0.00    +0.030 A  
DOCKED: ATOM     19  C   UNL     1      12.441  21.449  18.294 -0.17 -0.00    +0.022 A  
DOCKED: ATOM     20  C   UNL     1      13.413  21.739  17.334 -0.30 -0.01    +0.041 A  
DOCKED: ATOM     21 CL   UNL     1      14.884  22.491  17.813 -0.42 +0.01    -0.084 Cl 
DOCKED: ATOM     22  C   UNL     1      13.198  21.439  15.988 -0.33 -0.00    +0.022 A  
DOCKED: ATOM     23  C   UNL     1      11.993  20.857  15.591 -0.40 -0.00    +0.030 A  
DOCKED: ENDBRANCH  14  17
DOCKED: ENDBRANCH   1  14
DOCKED: TORSDOF 4
DOCKED: TER
DOCKED: ENDMDL
________________________________________________________________________________


    FINAL DOCKED STATE:
    ________________________


Run:   40 / 50
Time taken for this run:   0.000s

DOCKED: MODEL        40
DOCKED: USER    Run = 40
DOCKED: USER
DOCKED: USER    Estimated Free Energy of Binding    =  -4.57 kcal/mol  [=(1)+(2)+(3)-(4)]
DOCKED: USER
DOCKED: USER    (1) Final Intermolecular Energy     =  -5.77 kcal/mol
DOCKED: USER        vdW + Hbond + desolv Energy     =  -5.62 kcal/mol
DOCKED: USER        Electrostatic Energy            =  -0.15 kcal/mol
DOCKED: USER        Moving Ligand-Fixed Receptor    =  -5.77 kcal/mol
DOCKED: USER        Moving Ligand-Moving Receptor   =  +0.00 kcal/mol
DOCKED: USER    (2) Final Total Internal Energy     =  -1.49 kcal/mol
DOCKED: USER    (3) Torsional Free Energy           =  +1.19 kcal/mol
DOCKED: USER    (4) Unbound System's Energy         =  -1.49 kcal/mol
DOCKED: USER
DOCKED: USER
DOCKED: REMARK  Name = 
DOCKED: REMARK  5 active torsions:
DOCKED: REMARK  status: ('A' for Active; 'I' for Inactive)
DOCKED: REMARK    1  A    between atoms: C_1  and  C_2
DOCKED: REMARK    2  A    between atoms: N_4  and  C_5
DOCKED: REMARK    3  A    between atoms: C_8  and  N_9
DOCKED: REMARK    4  A    between atoms: N_9  and  S_10
DOCKED: REMARK    5  A    between atoms: S_10  and  C_13
DOCKED: REMARK                            x       y       z     vdW  Elec       q    Type
DOCKED: REMARK                         _______ _______ _______ _____ _____    ______ ____
DOCKED: USER                              x       y       z     vdW  Elec       q    Type
DOCKED: USER                           _______ _______ _______ _____ _____    ______ ____
DOCKED: ROOT
DOCKED: ATOM      1  N   UNL     1       8.569  21.330  15.653 -0.26 +0.05    -0.216 N  
DOCKED: ATOM      2  H   UNL     1       8.242  21.273  14.689 -0.06 -0.05    +0.174 HD 
DOCKED: ENDROOT
DOCKED: BRANCH   1   6
DOCKED: ATOM      3  C   UNL     1      10.175  25.035  16.897 -0.17 -0.01    +0.033 A  
DOCKED: ATOM      4  C   UNL     1       9.315  24.319  17.735 -0.17 -0.01    +0.025 A  
DOCKED: ATOM      5  C   UNL     1       8.773  23.096  17.326 -0.17 -0.01    +0.026 A  
DOCKED: ATOM      6  C   UNL     1       9.101  22.579  16.079 -0.30 -0.01    +0.048 A  
DOCKED: ATOM      7  C   UNL     1       9.923  23.304  15.219 -0.36 -0.00    +0.026 A  
DOCKED: ATOM      8  C   UNL     1      10.448  24.535  15.620 -0.26 +0.00    +0.025 A  
DOCKED: BRANCH   3  12
DOCKED: ATOM      9  C   UNL     1      12.456  27.835  17.978 -0.17 +0.01    +0.109 C  
DOCKED: ATOM     10  C   UNL     1      12.131  26.417  17.588 -0.13 +0.02    +0.214 C  
DOCKED: ATOM     11  O   UNL     1      13.006  25.557  17.565 -0.15 -0.04    -0.276 OA 
DOCKED: ATOM     12  N   UNL     1      10.795  26.247  17.271 -0.17 +0.10    -0.286 N  
DOCKED: ATOM     13  H   UNL     1      10.232  27.085  17.191 -0.22 -0.21    +0.155 HD 
DOCKED: ENDBRANCH   3  12
DOCKED: ENDBRANCH   1   6
DOCKED: BRANCH   1  14
DOCKED: ATOM     14  S   UNL     1       9.415  19.923  16.073 -0.47 -0.01    +0.072 S  
DOCKED: ATOM     15  O   UNL     1       8.794  19.413  17.277 -0.17 +0.02    -0.150 OA 
DOCKED: ATOM     16  O   UNL     1       9.554  19.093  14.896 -0.32 +0.03    -0.150 OA 
DOCKED: BRANCH  14  17
DOCKED: ATOM     17  C   UNL     1      11.007  20.558  16.526 -0.25 -0.01    +0.109 A  
DOCKED: ATOM     18  C   UNL     1      11.256  20.884  17.864 -0.16 -0.00    +0.030 A  
DOCKED: ATOM     19  C   UNL     1      12.469  21.481  18.209 -0.17 -0.00    +0.022 A  
DOCKED: ATOM     20  C   UNL     1      13.426  21.728  17.222 -0.31 -0.00    +0.041 A  
DOCKED: ATOM     21 CL   UNL     1      14.910  22.487  17.647 -0.43 +0.01    -0.084 Cl 
DOCKED: ATOM     22  C   UNL     1      13.186  21.378  15.892 -0.33 -0.00    +0.022 A  
DOCKED: ATOM     23  C   UNL     1      11.970  20.790  15.539 -0.39 -0.00    +0.030 A  
DOCKED: ENDBRANCH  14  17
DOCKED: ENDBRANCH   1  14
DOCKED: TORSDOF 4
DOCKED: TER
DOCKED: ENDMDL
________________________________________________________________________________


    FINAL DOCKED STATE:
    ________________________


Run:   41 / 50
Time taken for this run:   0.000s

DOCKED: MODEL        41
DOCKED: USER    Run = 41
DOCKED: USER
DOCKED: USER    Estimated Free Energy of Binding    =  -4.57 kcal/mol  [=(1)+(2)+(3)-(4)]
DOCKED: USER
DOCKED: USER    (1) Final Intermolecular Energy     =  -5.76 kcal/mol
DOCKED: USER        vdW + Hbond + desolv Energy     =  -5.62 kcal/mol
DOCKED: USER        Electrostatic Energy            =  -0.14 kcal/mol
DOCKED: USER        Moving Ligand-Fixed Receptor    =  -5.76 kcal/mol
DOCKED: USER        Moving Ligand-Moving Receptor   =  +0.00 kcal/mol
DOCKED: USER    (2) Final Total Internal Energy     =  -1.49 kcal/mol
DOCKED: USER    (3) Torsional Free Energy           =  +1.19 kcal/mol
DOCKED: USER    (4) Unbound System's Energy         =  -1.49 kcal/mol
DOCKED: USER
DOCKED: USER
DOCKED: REMARK  Name = 
DOCKED: REMARK  5 active torsions:
DOCKED: REMARK  status: ('A' for Active; 'I' for Inactive)
DOCKED: REMARK    1  A    between atoms: C_1  and  C_2
DOCKED: REMARK    2  A    between atoms: N_4  and  C_5
DOCKED: REMARK    3  A    between atoms: C_8  and  N_9
DOCKED: REMARK    4  A    between atoms: N_9  and  S_10
DOCKED: REMARK    5  A    between atoms: S_10  and  C_13
DOCKED: REMARK                            x       y       z     vdW  Elec       q    Type
DOCKED: REMARK                         _______ _______ _______ _____ _____    ______ ____
DOCKED: USER                              x       y       z     vdW  Elec       q    Type
DOCKED: USER                           _______ _______ _______ _____ _____    ______ ____
DOCKED: ROOT
DOCKED: ATOM      1  N   UNL     1       8.562  21.299  15.664 -0.26 +0.05    -0.216 N  
DOCKED: ATOM      2  H   UNL     1       8.220  21.241  14.705 -0.05 -0.05    +0.174 HD 
DOCKED: ENDROOT
DOCKED: BRANCH   1   6
DOCKED: ATOM      3  C   UNL     1      10.173  25.009  16.886 -0.18 -0.01    +0.033 A  
DOCKED: ATOM      4  C   UNL     1       9.326  24.290  17.735 -0.17 -0.01    +0.025 A  
DOCKED: ATOM      5  C   UNL     1       8.782  23.066  17.334 -0.17 -0.01    +0.026 A  
DOCKED: ATOM      6  C   UNL     1       9.095  22.549  16.082 -0.30 -0.01    +0.048 A  
DOCKED: ATOM      7  C   UNL     1       9.904  23.277  15.211 -0.35 -0.00    +0.026 A  
DOCKED: ATOM      8  C   UNL     1      10.430  24.509  15.606 -0.27 +0.00    +0.025 A  
DOCKED: BRANCH   3  12
DOCKED: ATOM      9  C   UNL     1      12.453  27.811  17.963 -0.17 +0.01    +0.109 C  
DOCKED: ATOM     10  C   UNL     1      12.125  26.389  17.589 -0.13 +0.02    +0.214 C  
DOCKED: ATOM     11  O   UNL     1      12.995  25.524  17.594 -0.14 -0.04    -0.276 OA 
DOCKED: ATOM     12  N   UNL     1      10.794  26.222  17.251 -0.17 +0.09    -0.286 N  
DOCKED: ATOM     13  H   UNL     1      10.238  27.062  17.149 -0.22 -0.20    +0.155 HD 
DOCKED: ENDBRANCH   3  12
DOCKED: ENDBRANCH   1   6
DOCKED: BRANCH   1  14
DOCKED: ATOM     14  S   UNL     1       9.418  19.894  16.070 -0.47 -0.01    +0.072 S  
DOCKED: ATOM     15  O   UNL     1       8.803  19.370  17.272 -0.18 +0.02    -0.150 OA 
DOCKED: ATOM     16  O   UNL     1       9.561  19.076  14.886 -0.32 +0.03    -0.150 OA 
DOCKED: BRANCH  14  17
DOCKED: ATOM     17  C   UNL     1      11.007  20.537  16.526 -0.26 -0.01    +0.109 A  
DOCKED: ATOM     18  C   UNL     1      11.253  20.859  17.865 -0.16 -0.00    +0.030 A  
DOCKED: ATOM     19  C   UNL     1      12.463  21.462  18.213 -0.17 -0.00    +0.022 A  
DOCKED: ATOM     20  C   UNL     1      13.418  21.719  17.227 -0.30 -0.00    +0.041 A  
DOCKED: ATOM     21 CL   UNL     1      14.898  22.485  17.654 -0.43 +0.01    -0.084 Cl 
DOCKED: ATOM     22  C   UNL     1      13.180  21.373  15.895 -0.34 -0.00    +0.022 A  
DOCKED: ATOM     23  C   UNL     1      11.968  20.780  15.540 -0.39 -0.00    +0.030 A  
DOCKED: ENDBRANCH  14  17
DOCKED: ENDBRANCH   1  14
DOCKED: TORSDOF 4
DOCKED: TER
DOCKED: ENDMDL
________________________________________________________________________________


    FINAL DOCKED STATE:
    ________________________


Run:   42 / 50
Time taken for this run:   0.000s

DOCKED: MODEL        42
DOCKED: USER    Run = 42
DOCKED: USER
DOCKED: USER    Estimated Free Energy of Binding    =  -4.56 kcal/mol  [=(1)+(2)+(3)-(4)]
DOCKED: USER
DOCKED: USER    (1) Final Intermolecular Energy     =  -5.76 kcal/mol
DOCKED: USER        vdW + Hbond + desolv Energy     =  -5.62 kcal/mol
DOCKED: USER        Electrostatic Energy            =  -0.14 kcal/mol
DOCKED: USER        Moving Ligand-Fixed Receptor    =  -5.76 kcal/mol
DOCKED: USER        Moving Ligand-Moving Receptor   =  +0.00 kcal/mol
DOCKED: USER    (2) Final Total Internal Energy     =  -1.49 kcal/mol
DOCKED: USER    (3) Torsional Free Energy           =  +1.19 kcal/mol
DOCKED: USER    (4) Unbound System's Energy         =  -1.49 kcal/mol
DOCKED: USER
DOCKED: USER
DOCKED: REMARK  Name = 
DOCKED: REMARK  5 active torsions:
DOCKED: REMARK  status: ('A' for Active; 'I' for Inactive)
DOCKED: REMARK    1  A    between atoms: C_1  and  C_2
DOCKED: REMARK    2  A    between atoms: N_4  and  C_5
DOCKED: REMARK    3  A    between atoms: C_8  and  N_9
DOCKED: REMARK    4  A    between atoms: N_9  and  S_10
DOCKED: REMARK    5  A    between atoms: S_10  and  C_13
DOCKED: REMARK                            x       y       z     vdW  Elec       q    Type
DOCKED: REMARK                         _______ _______ _______ _____ _____    ______ ____
DOCKED: USER                              x       y       z     vdW  Elec       q    Type
DOCKED: USER                           _______ _______ _______ _____ _____    ______ ____
DOCKED: ROOT
DOCKED: ATOM      1  N   UNL     1       8.566  21.283  15.707 -0.25 +0.04    -0.216 N  
DOCKED: ATOM      2  H   UNL     1       8.199  21.227  14.758 -0.04 -0.05    +0.174 HD 
DOCKED: ENDROOT
DOCKED: BRANCH   1   6
DOCKED: ATOM      3  C   UNL     1      10.185  25.000  16.901 -0.18 -0.01    +0.033 A  
DOCKED: ATOM      4  C   UNL     1       9.349  24.281  17.762 -0.17 -0.01    +0.025 A  
DOCKED: ATOM      5  C   UNL     1       8.802  23.055  17.370 -0.17 -0.01    +0.026 A  
DOCKED: ATOM      6  C   UNL     1       9.102  22.536  16.116 -0.30 -0.01    +0.048 A  
DOCKED: ATOM      7  C   UNL     1       9.899  23.262  15.234 -0.36 -0.00    +0.026 A  
DOCKED: ATOM      8  C   UNL     1      10.428  24.497  15.620 -0.28 +0.00    +0.025 A  
DOCKED: BRANCH   3  12
DOCKED: ATOM      9  C   UNL     1      12.471  27.807  17.949 -0.17 +0.01    +0.109 C  
DOCKED: ATOM     10  C   UNL     1      12.141  26.384  17.585 -0.13 +0.03    +0.214 C  
DOCKED: ATOM     11  O   UNL     1      13.011  25.519  17.589 -0.14 -0.04    -0.276 OA 
DOCKED: ATOM     12  N   UNL     1      10.807  26.215  17.256 -0.17 +0.09    -0.286 N  
DOCKED: ATOM     13  H   UNL     1      10.251  27.054  17.153 -0.22 -0.20    +0.155 HD 
DOCKED: ENDBRANCH   3  12
DOCKED: ENDBRANCH   1   6
DOCKED: BRANCH   1  14
DOCKED: ATOM     14  S   UNL     1       9.443  19.883  16.084 -0.47 -0.01    +0.072 S  
DOCKED: ATOM     15  O   UNL     1       8.843  19.330  17.279 -0.18 +0.02    -0.150 OA 
DOCKED: ATOM     16  O   UNL     1       9.590  19.088  14.885 -0.33 +0.03    -0.150 OA 
DOCKED: BRANCH  14  17
DOCKED: ATOM     17  C   UNL     1      11.026  20.539  16.541 -0.25 -0.01    +0.109 A  
DOCKED: ATOM     18  C   UNL     1      11.273  20.851  17.883 -0.16 -0.00    +0.030 A  
DOCKED: ATOM     19  C   UNL     1      12.477  21.464  18.233 -0.17 -0.00    +0.022 A  
DOCKED: ATOM     20  C   UNL     1      13.427  21.740  17.247 -0.31 -0.00    +0.041 A  
DOCKED: ATOM     21 CL   UNL     1      14.899  22.518  17.677 -0.43 +0.01    -0.084 Cl 
DOCKED: ATOM     22  C   UNL     1      13.189  21.404  15.913 -0.33 -0.00    +0.022 A  
DOCKED: ATOM     23  C   UNL     1      11.982  20.801  15.555 -0.39 -0.00    +0.030 A  
DOCKED: ENDBRANCH  14  17
DOCKED: ENDBRANCH   1  14
DOCKED: TORSDOF 4
DOCKED: TER
DOCKED: ENDMDL
________________________________________________________________________________


    FINAL DOCKED STATE:
    ________________________


Run:   43 / 50
Time taken for this run:   0.000s

DOCKED: MODEL        43
DOCKED: USER    Run = 43
DOCKED: USER
DOCKED: USER    Estimated Free Energy of Binding    =  -4.56 kcal/mol  [=(1)+(2)+(3)-(4)]
DOCKED: USER
DOCKED: USER    (1) Final Intermolecular Energy     =  -5.76 kcal/mol
DOCKED: USER        vdW + Hbond + desolv Energy     =  -5.60 kcal/mol
DOCKED: USER        Electrostatic Energy            =  -0.15 kcal/mol
DOCKED: USER        Moving Ligand-Fixed Receptor    =  -5.76 kcal/mol
DOCKED: USER        Moving Ligand-Moving Receptor   =  +0.00 kcal/mol
DOCKED: USER    (2) Final Total Internal Energy     =  -1.49 kcal/mol
DOCKED: USER    (3) Torsional Free Energy           =  +1.19 kcal/mol
DOCKED: USER    (4) Unbound System's Energy         =  -1.49 kcal/mol
DOCKED: USER
DOCKED: USER
DOCKED: REMARK  Name = 
DOCKED: REMARK  5 active torsions:
DOCKED: REMARK  status: ('A' for Active; 'I' for Inactive)
DOCKED: REMARK    1  A    between atoms: C_1  and  C_2
DOCKED: REMARK    2  A    between atoms: N_4  and  C_5
DOCKED: REMARK    3  A    between atoms: C_8  and  N_9
DOCKED: REMARK    4  A    between atoms: N_9  and  S_10
DOCKED: REMARK    5  A    between atoms: S_10  and  C_13
DOCKED: REMARK                            x       y       z     vdW  Elec       q    Type
DOCKED: REMARK                         _______ _______ _______ _____ _____    ______ ____
DOCKED: USER                              x       y       z     vdW  Elec       q    Type
DOCKED: USER                           _______ _______ _______ _____ _____    ______ ____
DOCKED: ROOT
DOCKED: ATOM      1  N   UNL     1       8.597  21.354  15.616 -0.26 +0.05    -0.216 N  
DOCKED: ATOM      2  H   UNL     1       8.302  21.302  14.642 -0.07 -0.04    +0.174 HD 
DOCKED: ENDROOT
DOCKED: BRANCH   1   6
DOCKED: ATOM      3  C   UNL     1      10.156  25.055  16.932 -0.17 -0.01    +0.033 A  
DOCKED: ATOM      4  C   UNL     1       9.301  24.314  17.753 -0.17 -0.01    +0.025 A  
DOCKED: ATOM      5  C   UNL     1       8.774  23.093  17.321 -0.17 -0.01    +0.026 A  
DOCKED: ATOM      6  C   UNL     1       9.113  22.601  16.066 -0.31 -0.01    +0.048 A  
DOCKED: ATOM      7  C   UNL     1       9.930  23.351  15.222 -0.37 -0.00    +0.026 A  
DOCKED: ATOM      8  C   UNL     1      10.439  24.581  15.647 -0.25 +0.00    +0.025 A  
DOCKED: BRANCH   3  12
DOCKED: ATOM      9  C   UNL     1      12.401  27.860  18.073 -0.17 +0.00    +0.109 C  
DOCKED: ATOM     10  C   UNL     1      12.093  26.446  17.658 -0.14 +0.02    +0.214 C  
DOCKED: ATOM     11  O   UNL     1      12.976  25.595  17.627 -0.14 -0.04    -0.276 OA 
DOCKED: ATOM     12  N   UNL     1      10.760  26.267  17.328 -0.16 +0.11    -0.286 N  
DOCKED: ATOM     13  H   UNL     1      10.190  27.100  17.259 -0.21 -0.22    +0.155 HD 
DOCKED: ENDBRANCH   3  12
DOCKED: ENDBRANCH   1   6
DOCKED: BRANCH   1  14
DOCKED: ATOM     14  S   UNL     1       9.430  19.945  16.057 -0.47 -0.01    +0.072 S  
DOCKED: ATOM     15  O   UNL     1       8.777  19.436  17.245 -0.18 +0.02    -0.150 OA 
DOCKED: ATOM     16  O   UNL     1       9.598  19.116  14.884 -0.35 +0.03    -0.150 OA 
DOCKED: BRANCH  14  17
DOCKED: ATOM     17  C   UNL     1      11.010  20.578  16.552 -0.25 -0.01    +0.109 A  
DOCKED: ATOM     18  C   UNL     1      11.241  20.857  17.903 -0.16 -0.00    +0.030 A  
DOCKED: ATOM     19  C   UNL     1      12.445  21.452  18.284 -0.17 -0.00    +0.022 A  
DOCKED: ATOM     20  C   UNL     1      13.410  21.744  17.318 -0.30 -0.00    +0.041 A  
DOCKED: ATOM     21 CL   UNL     1      14.882  22.501  17.787 -0.42 +0.01    -0.084 Cl 
DOCKED: ATOM     22  C   UNL     1      13.188  21.441  15.973 -0.33 -0.00    +0.022 A  
DOCKED: ATOM     23  C   UNL     1      11.982  20.855  15.585 -0.40 -0.00    +0.030 A  
DOCKED: ENDBRANCH  14  17
DOCKED: ENDBRANCH   1  14
DOCKED: TORSDOF 4
DOCKED: TER
DOCKED: ENDMDL
________________________________________________________________________________


    FINAL DOCKED STATE:
    ________________________


Run:   44 / 50
Time taken for this run:   0.000s

DOCKED: MODEL        44
DOCKED: USER    Run = 44
DOCKED: USER
DOCKED: USER    Estimated Free Energy of Binding    =  -4.56 kcal/mol  [=(1)+(2)+(3)-(4)]
DOCKED: USER
DOCKED: USER    (1) Final Intermolecular Energy     =  -5.75 kcal/mol
DOCKED: USER        vdW + Hbond + desolv Energy     =  -5.60 kcal/mol
DOCKED: USER        Electrostatic Energy            =  -0.15 kcal/mol
DOCKED: USER        Moving Ligand-Fixed Receptor    =  -5.75 kcal/mol
DOCKED: USER        Moving Ligand-Moving Receptor   =  +0.00 kcal/mol
DOCKED: USER    (2) Final Total Internal Energy     =  -1.49 kcal/mol
DOCKED: USER    (3) Torsional Free Energy           =  +1.19 kcal/mol
DOCKED: USER    (4) Unbound System's Energy         =  -1.49 kcal/mol
DOCKED: USER
DOCKED: USER
DOCKED: REMARK  Name = 
DOCKED: REMARK  5 active torsions:
DOCKED: REMARK  status: ('A' for Active; 'I' for Inactive)
DOCKED: REMARK    1  A    between atoms: C_1  and  C_2
DOCKED: REMARK    2  A    between atoms: N_4  and  C_5
DOCKED: REMARK    3  A    between atoms: C_8  and  N_9
DOCKED: REMARK    4  A    between atoms: N_9  and  S_10
DOCKED: REMARK    5  A    between atoms: S_10  and  C_13
DOCKED: REMARK                            x       y       z     vdW  Elec       q    Type
DOCKED: REMARK                         _______ _______ _______ _____ _____    ______ ____
DOCKED: USER                              x       y       z     vdW  Elec       q    Type
DOCKED: USER                           _______ _______ _______ _____ _____    ______ ____
DOCKED: ROOT
DOCKED: ATOM      1  N   UNL     1       8.598  21.295  15.638 -0.26 +0.04    -0.216 N  
DOCKED: ATOM      2  H   UNL     1       8.279  21.233  14.671 -0.04 -0.04    +0.174 HD 
DOCKED: ENDROOT
DOCKED: BRANCH   1   6
DOCKED: ATOM      3  C   UNL     1      10.169  25.014  16.886 -0.18 -0.01    +0.033 A  
DOCKED: ATOM      4  C   UNL     1       9.320  24.286  17.725 -0.17 -0.01    +0.025 A  
DOCKED: ATOM      5  C   UNL     1       8.789  23.059  17.315 -0.17 -0.01    +0.026 A  
DOCKED: ATOM      6  C   UNL     1       9.118  22.548  16.065 -0.31 -0.01    +0.048 A  
DOCKED: ATOM      7  C   UNL     1       9.929  23.285  15.204 -0.35 -0.00    +0.026 A  
DOCKED: ATOM      8  C   UNL     1      10.442  24.520  15.607 -0.26 +0.00    +0.025 A  
DOCKED: BRANCH   3  12
DOCKED: ATOM      9  C   UNL     1      12.422  27.833  17.975 -0.17 +0.01    +0.109 C  
DOCKED: ATOM     10  C   UNL     1      12.110  26.412  17.587 -0.13 +0.02    +0.214 C  
DOCKED: ATOM     11  O   UNL     1      12.991  25.559  17.571 -0.15 -0.04    -0.276 OA 
DOCKED: ATOM     12  N   UNL     1      10.777  26.231  17.260 -0.16 +0.10    -0.286 N  
DOCKED: ATOM     13  H   UNL     1      10.209  27.065  17.175 -0.22 -0.21    +0.155 HD 
DOCKED: ENDBRANCH   3  12
DOCKED: ENDBRANCH   1   6
DOCKED: BRANCH   1  14
DOCKED: ATOM     14  S   UNL     1       9.449  19.894  16.069 -0.47 -0.01    +0.072 S  
DOCKED: ATOM     15  O   UNL     1       8.806  19.370  17.255 -0.18 +0.02    -0.150 OA 
DOCKED: ATOM     16  O   UNL     1       9.625  19.075  14.890 -0.34 +0.03    -0.150 OA 
DOCKED: BRANCH  14  17
DOCKED: ATOM     17  C   UNL     1      11.023  20.544  16.564 -0.25 -0.01    +0.109 A  
DOCKED: ATOM     18  C   UNL     1      11.251  20.822  17.916 -0.16 -0.00    +0.030 A  
DOCKED: ATOM     19  C   UNL     1      12.448  21.430  18.297 -0.17 -0.00    +0.022 A  
DOCKED: ATOM     20  C   UNL     1      13.410  21.735  17.332 -0.30 -0.01    +0.041 A  
DOCKED: ATOM     21 CL   UNL     1      14.873  22.508  17.801 -0.42 +0.01    -0.084 Cl 
DOCKED: ATOM     22  C   UNL     1      13.190  21.433  15.986 -0.33 -0.00    +0.022 A  
DOCKED: ATOM     23  C   UNL     1      11.991  20.834  15.597 -0.40 -0.00    +0.030 A  
DOCKED: ENDBRANCH  14  17
DOCKED: ENDBRANCH   1  14
DOCKED: TORSDOF 4
DOCKED: TER
DOCKED: ENDMDL
________________________________________________________________________________


    FINAL DOCKED STATE:
    ________________________


Run:   45 / 50
Time taken for this run:   0.000s

DOCKED: MODEL        45
DOCKED: USER    Run = 45
DOCKED: USER
DOCKED: USER    Estimated Free Energy of Binding    =  -4.58 kcal/mol  [=(1)+(2)+(3)-(4)]
DOCKED: USER
DOCKED: USER    (1) Final Intermolecular Energy     =  -5.77 kcal/mol
DOCKED: USER        vdW + Hbond + desolv Energy     =  -5.62 kcal/mol
DOCKED: USER        Electrostatic Energy            =  -0.15 kcal/mol
DOCKED: USER        Moving Ligand-Fixed Receptor    =  -5.77 kcal/mol
DOCKED: USER        Moving Ligand-Moving Receptor   =  +0.00 kcal/mol
DOCKED: USER    (2) Final Total Internal Energy     =  -1.48 kcal/mol
DOCKED: USER    (3) Torsional Free Energy           =  +1.19 kcal/mol
DOCKED: USER    (4) Unbound System's Energy         =  -1.48 kcal/mol
DOCKED: USER
DOCKED: USER
DOCKED: REMARK  Name = 
DOCKED: REMARK  5 active torsions:
DOCKED: REMARK  status: ('A' for Active; 'I' for Inactive)
DOCKED: REMARK    1  A    between atoms: C_1  and  C_2
DOCKED: REMARK    2  A    between atoms: N_4  and  C_5
DOCKED: REMARK    3  A    between atoms: C_8  and  N_9
DOCKED: REMARK    4  A    between atoms: N_9  and  S_10
DOCKED: REMARK    5  A    between atoms: S_10  and  C_13
DOCKED: REMARK                            x       y       z     vdW  Elec       q    Type
DOCKED: REMARK                         _______ _______ _______ _____ _____    ______ ____
DOCKED: USER                              x       y       z     vdW  Elec       q    Type
DOCKED: USER                           _______ _______ _______ _____ _____    ______ ____
DOCKED: ROOT
DOCKED: ATOM      1  N   UNL     1       8.544  21.309  15.657 -0.26 +0.05    -0.216 N  
DOCKED: ATOM      2  H   UNL     1       8.205  21.250  14.697 -0.06 -0.05    +0.174 HD 
DOCKED: ENDROOT
DOCKED: BRANCH   1   6
DOCKED: ATOM      3  C   UNL     1      10.154  25.021  16.877 -0.17 -0.01    +0.033 A  
DOCKED: ATOM      4  C   UNL     1       9.300  24.306  17.723 -0.17 -0.01    +0.025 A  
DOCKED: ATOM      5  C   UNL     1       8.756  23.082  17.322 -0.17 -0.01    +0.026 A  
DOCKED: ATOM      6  C   UNL     1       9.077  22.560  16.074 -0.30 -0.01    +0.048 A  
DOCKED: ATOM      7  C   UNL     1       9.893  23.283  15.207 -0.35 -0.00    +0.026 A  
DOCKED: ATOM      8  C   UNL     1      10.419  24.516  15.600 -0.27 +0.00    +0.025 A  
DOCKED: BRANCH   3  12
DOCKED: ATOM      9  C   UNL     1      12.438  27.825  17.937 -0.18 +0.01    +0.109 C  
DOCKED: ATOM     10  C   UNL     1      12.112  26.406  17.556 -0.13 +0.03    +0.214 C  
DOCKED: ATOM     11  O   UNL     1      12.986  25.545  17.537 -0.15 -0.04    -0.276 OA 
DOCKED: ATOM     12  N   UNL     1      10.775  26.234  17.242 -0.16 +0.10    -0.286 N  
DOCKED: ATOM     13  H   UNL     1      10.212  27.072  17.158 -0.22 -0.21    +0.155 HD 
DOCKED: ENDBRANCH   3  12
DOCKED: ENDBRANCH   1   6
DOCKED: BRANCH   1  14
DOCKED: ATOM     14  S   UNL     1       9.399  19.905  16.069 -0.47 -0.01    +0.072 S  
DOCKED: ATOM     15  O   UNL     1       8.795  19.396  17.283 -0.17 +0.02    -0.150 OA 
DOCKED: ATOM     16  O   UNL     1       9.524  19.073  14.892 -0.30 +0.03    -0.150 OA 
DOCKED: BRANCH  14  17
DOCKED: ATOM     17  C   UNL     1      10.995  20.545  16.499 -0.26 -0.01    +0.109 A  
DOCKED: ATOM     18  C   UNL     1      11.263  20.869  17.833 -0.17 -0.00    +0.030 A  
DOCKED: ATOM     19  C   UNL     1      12.480  21.470  18.161 -0.18 -0.00    +0.022 A  
DOCKED: ATOM     20  C   UNL     1      13.420  21.723  17.160 -0.31 -0.00    +0.041 A  
DOCKED: ATOM     21 CL   UNL     1      14.908  22.486  17.563 -0.44 +0.01    -0.084 Cl 
DOCKED: ATOM     22  C   UNL     1      13.161  21.374  15.833 -0.33 -0.00    +0.022 A  
DOCKED: ATOM     23  C   UNL     1      11.942  20.782  15.498 -0.39 -0.00    +0.030 A  
DOCKED: ENDBRANCH  14  17
DOCKED: ENDBRANCH   1  14
DOCKED: TORSDOF 4
DOCKED: TER
DOCKED: ENDMDL
________________________________________________________________________________


    FINAL DOCKED STATE:
    ________________________


Run:   46 / 50
Time taken for this run:   0.000s

DOCKED: MODEL        46
DOCKED: USER    Run = 46
DOCKED: USER
DOCKED: USER    Estimated Free Energy of Binding    =  -4.59 kcal/mol  [=(1)+(2)+(3)-(4)]
DOCKED: USER
DOCKED: USER    (1) Final Intermolecular Energy     =  -5.78 kcal/mol
DOCKED: USER        vdW + Hbond + desolv Energy     =  -5.63 kcal/mol
DOCKED: USER        Electrostatic Energy            =  -0.15 kcal/mol
DOCKED: USER        Moving Ligand-Fixed Receptor    =  -5.78 kcal/mol
DOCKED: USER        Moving Ligand-Moving Receptor   =  +0.00 kcal/mol
DOCKED: USER    (2) Final Total Internal Energy     =  -1.47 kcal/mol
DOCKED: USER    (3) Torsional Free Energy           =  +1.19 kcal/mol
DOCKED: USER    (4) Unbound System's Energy         =  -1.47 kcal/mol
DOCKED: USER
DOCKED: USER
DOCKED: REMARK  Name = 
DOCKED: REMARK  5 active torsions:
DOCKED: REMARK  status: ('A' for Active; 'I' for Inactive)
DOCKED: REMARK    1  A    between atoms: C_1  and  C_2
DOCKED: REMARK    2  A    between atoms: N_4  and  C_5
DOCKED: REMARK    3  A    between atoms: C_8  and  N_9
DOCKED: REMARK    4  A    between atoms: N_9  and  S_10
DOCKED: REMARK    5  A    between atoms: S_10  and  C_13
DOCKED: REMARK                            x       y       z     vdW  Elec       q    Type
DOCKED: REMARK                         _______ _______ _______ _____ _____    ______ ____
DOCKED: USER                              x       y       z     vdW  Elec       q    Type
DOCKED: USER                           _______ _______ _______ _____ _____    ______ ____
DOCKED: ROOT
DOCKED: ATOM      1  N   UNL     1       8.579  21.320  15.636 -0.26 +0.05    -0.216 N  
DOCKED: ATOM      2  H   UNL     1       8.263  21.264  14.668 -0.06 -0.05    +0.174 HD 
DOCKED: ENDROOT
DOCKED: BRANCH   1   6
DOCKED: ATOM      3  C   UNL     1      10.154  25.028  16.911 -0.17 -0.01    +0.033 A  
DOCKED: ATOM      4  C   UNL     1       9.267  24.317  17.725 -0.17 -0.01    +0.025 A  
DOCKED: ATOM      5  C   UNL     1       8.734  23.094  17.306 -0.17 -0.01    +0.026 A  
DOCKED: ATOM      6  C   UNL     1       9.100  22.569  16.072 -0.30 -0.01    +0.048 A  
DOCKED: ATOM      7  C   UNL     1       9.950  23.289  15.234 -0.37 -0.00    +0.026 A  
DOCKED: ATOM      8  C   UNL     1      10.465  24.520  15.646 -0.26 +0.00    +0.025 A  
DOCKED: BRANCH   3  12
DOCKED: ATOM      9  C   UNL     1      12.420  27.836  18.000 -0.17 +0.01    +0.109 C  
DOCKED: ATOM     10  C   UNL     1      12.106  26.423  17.584 -0.13 +0.02    +0.214 C  
DOCKED: ATOM     11  O   UNL     1      12.993  25.579  17.517 -0.15 -0.04    -0.276 OA 
DOCKED: ATOM     12  N   UNL     1      10.765  26.239  17.297 -0.16 +0.10    -0.286 N  
DOCKED: ATOM     13  H   UNL     1      10.187  27.070  17.253 -0.21 -0.22    +0.155 HD 
DOCKED: ENDBRANCH   3  12
DOCKED: ENDBRANCH   1   6
DOCKED: BRANCH   1  14
DOCKED: ATOM     14  S   UNL     1       9.426  19.915  16.061 -0.47 -0.01    +0.072 S  
DOCKED: ATOM     15  O   UNL     1       8.803  19.407  17.265 -0.18 +0.02    -0.150 OA 
DOCKED: ATOM     16  O   UNL     1       9.568  19.083  14.886 -0.32 +0.03    -0.150 OA 
DOCKED: BRANCH  14  17
DOCKED: ATOM     17  C   UNL     1      11.016  20.554  16.515 -0.26 -0.01    +0.109 A  
DOCKED: ATOM     18  C   UNL     1      11.259  20.890  17.852 -0.16 -0.00    +0.030 A  
DOCKED: ATOM     19  C   UNL     1      12.471  21.490  18.197 -0.17 -0.00    +0.022 A  
DOCKED: ATOM     20  C   UNL     1      13.432  21.729  17.213 -0.31 -0.00    +0.041 A  
DOCKED: ATOM     21 CL   UNL     1      14.914  22.492  17.637 -0.43 +0.01    -0.084 Cl 
DOCKED: ATOM     22  C   UNL     1      13.197  21.369  15.885 -0.33 -0.00    +0.022 A  
DOCKED: ATOM     23  C   UNL     1      11.983  20.778  15.531 -0.39 -0.00    +0.030 A  
DOCKED: ENDBRANCH  14  17
DOCKED: ENDBRANCH   1  14
DOCKED: TORSDOF 4
DOCKED: TER
DOCKED: ENDMDL
________________________________________________________________________________


    FINAL DOCKED STATE:
    ________________________


Run:   47 / 50
Time taken for this run:   0.000s

DOCKED: MODEL        47
DOCKED: USER    Run = 47
DOCKED: USER
DOCKED: USER    Estimated Free Energy of Binding    =  -4.24 kcal/mol  [=(1)+(2)+(3)-(4)]
DOCKED: USER
DOCKED: USER    (1) Final Intermolecular Energy     =  -5.43 kcal/mol
DOCKED: USER        vdW + Hbond + desolv Energy     =  -5.35 kcal/mol
DOCKED: USER        Electrostatic Energy            =  -0.08 kcal/mol
DOCKED: USER        Moving Ligand-Fixed Receptor    =  -5.43 kcal/mol
DOCKED: USER        Moving Ligand-Moving Receptor   =  +0.00 kcal/mol
DOCKED: USER    (2) Final Total Internal Energy     =  -1.49 kcal/mol
DOCKED: USER    (3) Torsional Free Energy           =  +1.19 kcal/mol
DOCKED: USER    (4) Unbound System's Energy         =  -1.49 kcal/mol
DOCKED: USER
DOCKED: USER
DOCKED: REMARK  Name = 
DOCKED: REMARK  5 active torsions:
DOCKED: REMARK  status: ('A' for Active; 'I' for Inactive)
DOCKED: REMARK    1  A    between atoms: C_1  and  C_2
DOCKED: REMARK    2  A    between atoms: N_4  and  C_5
DOCKED: REMARK    3  A    between atoms: C_8  and  N_9
DOCKED: REMARK    4  A    between atoms: N_9  and  S_10
DOCKED: REMARK    5  A    between atoms: S_10  and  C_13
DOCKED: REMARK                            x       y       z     vdW  Elec       q    Type
DOCKED: REMARK                         _______ _______ _______ _____ _____    ______ ____
DOCKED: USER                              x       y       z     vdW  Elec       q    Type
DOCKED: USER                           _______ _______ _______ _____ _____    ______ ____
DOCKED: ROOT
DOCKED: ATOM      1  N   UNL     1       9.667  20.230  16.564 -0.19 +0.03    -0.216 N  
DOCKED: ATOM      2  H   UNL     1       9.367  19.537  17.249 +0.06 -0.02    +0.174 HD 
DOCKED: ENDROOT
DOCKED: BRANCH   1   6
DOCKED: ATOM      3  C   UNL     1      13.637  21.638  16.902 -0.31 -0.00    +0.033 A  
DOCKED: ATOM      4  C   UNL     1      13.087  21.363  15.646 -0.34 -0.00    +0.025 A  
DOCKED: ATOM      5  C   UNL     1      11.777  20.889  15.527 -0.37 -0.00    +0.026 A  
DOCKED: ATOM      6  C   UNL     1      11.006  20.699  16.668 -0.26 -0.01    +0.048 A  
DOCKED: ATOM      7  C   UNL     1      11.557  20.929  17.927 -0.17 -0.00    +0.026 A  
DOCKED: ATOM      8  C   UNL     1      12.873  21.384  18.045 -0.20 -0.00    +0.025 A  
DOCKED: BRANCH   3  12
DOCKED: ATOM      9  C   UNL     1      16.722  23.697  17.575 -0.29 -0.01    +0.109 C  
DOCKED: ATOM     10  C   UNL     1      15.238  23.444  17.524 -0.21 -0.01    +0.214 C  
DOCKED: ATOM     11  O   UNL     1      14.442  24.315  17.858 -0.13 -0.00    -0.276 OA 
DOCKED: ATOM     12  N   UNL     1      14.932  22.167  17.086 -0.23 +0.06    -0.286 N  
DOCKED: ATOM     13  H   UNL     1      15.702  21.517  16.994 -0.36 -0.11    +0.155 HD 
DOCKED: ENDBRANCH   3  12
DOCKED: ENDBRANCH   1   6
DOCKED: BRANCH   1  14
DOCKED: ATOM     14  S   UNL     1       8.443  21.374  16.307 -0.36 -0.02    +0.072 S  
DOCKED: ATOM     15  O   UNL     1       8.175  21.377  14.884 -0.29 +0.04    -0.150 OA 
DOCKED: ATOM     16  O   UNL     1       7.384  21.147  17.266 -0.11 +0.03    -0.150 OA 
DOCKED: BRANCH  14  17
DOCKED: ATOM     17  C   UNL     1       9.261  22.898  16.696 -0.21 -0.03    +0.109 A  
DOCKED: ATOM     18  C   UNL     1       9.941  23.584  15.683 -0.37 -0.00    +0.030 A  
DOCKED: ATOM     19  C   UNL     1      10.673  24.729  16.005 -0.24 +0.00    +0.022 A  
DOCKED: ATOM     20  C   UNL     1      10.702  25.185  17.324 -0.22 -0.01    +0.041 A  
DOCKED: ATOM     21 CL   UNL     1      11.626  26.581  17.722 -0.29 +0.01    -0.084 Cl 
DOCKED: ATOM     22  C   UNL     1      10.002  24.513  18.327 -0.13 -0.01    +0.022 A  
DOCKED: ATOM     23  C   UNL     1       9.276  23.362  18.014 -0.11 -0.01    +0.030 A  
DOCKED: ENDBRANCH  14  17
DOCKED: ENDBRANCH   1  14
DOCKED: TORSDOF 4
DOCKED: TER
DOCKED: ENDMDL
________________________________________________________________________________


    FINAL DOCKED STATE:
    ________________________


Run:   48 / 50
Time taken for this run:   0.000s

DOCKED: MODEL        48
DOCKED: USER    Run = 48
DOCKED: USER
DOCKED: USER    Estimated Free Energy of Binding    =  -4.51 kcal/mol  [=(1)+(2)+(3)-(4)]
DOCKED: USER
DOCKED: USER    (1) Final Intermolecular Energy     =  -5.70 kcal/mol
DOCKED: USER        vdW + Hbond + desolv Energy     =  -5.53 kcal/mol
DOCKED: USER        Electrostatic Energy            =  -0.17 kcal/mol
DOCKED: USER        Moving Ligand-Fixed Receptor    =  -5.70 kcal/mol
DOCKED: USER        Moving Ligand-Moving Receptor   =  +0.00 kcal/mol
DOCKED: USER    (2) Final Total Internal Energy     =  -1.42 kcal/mol
DOCKED: USER    (3) Torsional Free Energy           =  +1.19 kcal/mol
DOCKED: USER    (4) Unbound System's Energy         =  -1.42 kcal/mol
DOCKED: USER
DOCKED: USER
DOCKED: REMARK  Name = 
DOCKED: REMARK  5 active torsions:
DOCKED: REMARK  status: ('A' for Active; 'I' for Inactive)
DOCKED: REMARK    1  A    between atoms: C_1  and  C_2
DOCKED: REMARK    2  A    between atoms: N_4  and  C_5
DOCKED: REMARK    3  A    between atoms: C_8  and  N_9
DOCKED: REMARK    4  A    between atoms: N_9  and  S_10
DOCKED: REMARK    5  A    between atoms: S_10  and  C_13
DOCKED: REMARK                            x       y       z     vdW  Elec       q    Type
DOCKED: REMARK                         _______ _______ _______ _____ _____    ______ ____
DOCKED: USER                              x       y       z     vdW  Elec       q    Type
DOCKED: USER                           _______ _______ _______ _____ _____    ______ ____
DOCKED: ROOT
DOCKED: ATOM      1  N   UNL     1       8.769  21.154  15.843 -0.24 +0.04    -0.216 N  
DOCKED: ATOM      2  H   UNL     1       8.296  21.074  14.944 +0.03 -0.04    +0.174 HD 
DOCKED: ENDROOT
DOCKED: BRANCH   1   6
DOCKED: ATOM      3  C   UNL     1      10.283  24.960  16.886 -0.21 -0.01    +0.033 A  
DOCKED: ATOM      4  C   UNL     1      10.430  24.471  15.584 -0.28 +0.00    +0.025 A  
DOCKED: ATOM      5  C   UNL     1       9.939  23.209  15.234 -0.35 -0.00    +0.026 A  
DOCKED: ATOM      6  C   UNL     1       9.287  22.434  16.185 -0.29 -0.01    +0.048 A  
DOCKED: ATOM      7  C   UNL     1       9.172  22.893  17.496 -0.14 -0.01    +0.026 A  
DOCKED: ATOM      8  C   UNL     1       9.681  24.145  17.850 -0.15 -0.01    +0.025 A  
DOCKED: BRANCH   3  12
DOCKED: ATOM      9  C   UNL     1      12.084  28.033  18.118 -0.17 -0.01    +0.109 C  
DOCKED: ATOM     10  C   UNL     1      11.975  26.581  17.733 -0.16 +0.01    +0.214 C  
DOCKED: ATOM     11  O   UNL     1      12.946  25.836  17.818 -0.14 -0.03    -0.276 OA 
DOCKED: ATOM     12  N   UNL     1      10.709  26.243  17.288 -0.15 +0.11    -0.286 N  
DOCKED: ATOM     13  H   UNL     1      10.060  27.004  17.132 -0.21 -0.23    +0.155 HD 
DOCKED: ENDBRANCH   3  12
DOCKED: ENDBRANCH   1   6
DOCKED: BRANCH   1  14
DOCKED: ATOM     14  S   UNL     1       9.754  19.802  16.113 -0.48 -0.01    +0.072 S  
DOCKED: ATOM     15  O   UNL     1       9.206  19.118  17.266 -0.20 +0.02    -0.150 OA 
DOCKED: ATOM     16  O   UNL     1       9.950  19.110  14.859 -0.43 +0.03    -0.150 OA 
DOCKED: BRANCH  14  17
DOCKED: ATOM     17  C   UNL     1      11.285  20.541  16.614 -0.24 -0.01    +0.109 A  
DOCKED: ATOM     18  C   UNL     1      11.538  20.730  17.978 -0.16 -0.00    +0.030 A  
DOCKED: ATOM     19  C   UNL     1      12.694  21.406  18.372 -0.17 -0.00    +0.022 A  
DOCKED: ATOM     20  C   UNL     1      13.592  21.866  17.408 -0.30 -0.01    +0.041 A  
DOCKED: ATOM     21 CL   UNL     1      15.003  22.720  17.896 -0.40 +0.01    -0.084 Cl 
DOCKED: ATOM     22  C   UNL     1      13.350  21.653  16.049 -0.26 -0.00    +0.022 A  
DOCKED: ATOM     23  C   UNL     1      12.191  20.988  15.647 -0.42 -0.00    +0.030 A  
DOCKED: ENDBRANCH  14  17
DOCKED: ENDBRANCH   1  14
DOCKED: TORSDOF 4
DOCKED: TER
DOCKED: ENDMDL
________________________________________________________________________________


    FINAL DOCKED STATE:
    ________________________


Run:   49 / 50
Time taken for this run:   0.000s

DOCKED: MODEL        49
DOCKED: USER    Run = 49
DOCKED: USER
DOCKED: USER    Estimated Free Energy of Binding    =  -4.59 kcal/mol  [=(1)+(2)+(3)-(4)]
DOCKED: USER
DOCKED: USER    (1) Final Intermolecular Energy     =  -5.78 kcal/mol
DOCKED: USER        vdW + Hbond + desolv Energy     =  -5.63 kcal/mol
DOCKED: USER        Electrostatic Energy            =  -0.15 kcal/mol
DOCKED: USER        Moving Ligand-Fixed Receptor    =  -5.78 kcal/mol
DOCKED: USER        Moving Ligand-Moving Receptor   =  +0.00 kcal/mol
DOCKED: USER    (2) Final Total Internal Energy     =  -1.48 kcal/mol
DOCKED: USER    (3) Torsional Free Energy           =  +1.19 kcal/mol
DOCKED: USER    (4) Unbound System's Energy         =  -1.48 kcal/mol
DOCKED: USER
DOCKED: USER
DOCKED: REMARK  Name = 
DOCKED: REMARK  5 active torsions:
DOCKED: REMARK  status: ('A' for Active; 'I' for Inactive)
DOCKED: REMARK    1  A    between atoms: C_1  and  C_2
DOCKED: REMARK    2  A    between atoms: N_4  and  C_5
DOCKED: REMARK    3  A    between atoms: C_8  and  N_9
DOCKED: REMARK    4  A    between atoms: N_9  and  S_10
DOCKED: REMARK    5  A    between atoms: S_10  and  C_13
DOCKED: REMARK                            x       y       z     vdW  Elec       q    Type
DOCKED: REMARK                         _______ _______ _______ _____ _____    ______ ____
DOCKED: USER                              x       y       z     vdW  Elec       q    Type
DOCKED: USER                           _______ _______ _______ _____ _____    ______ ____
DOCKED: ROOT
DOCKED: ATOM      1  N   UNL     1       8.577  21.348  15.651 -0.26 +0.05    -0.216 N  
DOCKED: ATOM      2  H   UNL     1       8.255  21.292  14.685 -0.06 -0.05    +0.174 HD 
DOCKED: ENDROOT
DOCKED: BRANCH   1   6
DOCKED: ATOM      3  C   UNL     1      10.171  25.053  16.911 -0.17 -0.01    +0.033 A  
DOCKED: ATOM      4  C   UNL     1       9.293  24.342  17.735 -0.17 -0.01    +0.025 A  
DOCKED: ATOM      5  C   UNL     1       8.754  23.120  17.321 -0.17 -0.01    +0.026 A  
DOCKED: ATOM      6  C   UNL     1       9.104  22.596  16.082 -0.30 -0.01    +0.048 A  
DOCKED: ATOM      7  C   UNL     1       9.945  23.316  15.235 -0.37 -0.00    +0.026 A  
DOCKED: ATOM      8  C   UNL     1      10.466  24.547  15.642 -0.25 +0.00    +0.025 A  
DOCKED: BRANCH   3  12
DOCKED: ATOM      9  C   UNL     1      12.447  27.852  18.003 -0.17 +0.01    +0.109 C  
DOCKED: ATOM     10  C   UNL     1      12.126  26.437  17.601 -0.13 +0.02    +0.214 C  
DOCKED: ATOM     11  O   UNL     1      13.004  25.582  17.563 -0.15 -0.04    -0.276 OA 
DOCKED: ATOM     12  N   UNL     1      10.788  26.263  17.292 -0.16 +0.10    -0.286 N  
DOCKED: ATOM     13  H   UNL     1      10.220  27.099  17.225 -0.22 -0.21    +0.155 HD 
DOCKED: ENDBRANCH   3  12
DOCKED: ENDBRANCH   1   6
DOCKED: BRANCH   1  14
DOCKED: ATOM     14  S   UNL     1       9.421  19.941  16.074 -0.47 -0.01    +0.072 S  
DOCKED: ATOM     15  O   UNL     1       8.808  19.441  17.286 -0.17 +0.02    -0.150 OA 
DOCKED: ATOM     16  O   UNL     1       9.549  19.103  14.901 -0.33 +0.03    -0.150 OA 
DOCKED: BRANCH  14  17
DOCKED: ATOM     17  C   UNL     1      11.019  20.574  16.511 -0.26 -0.01    +0.109 A  
DOCKED: ATOM     18  C   UNL     1      11.274  20.920  17.843 -0.16 -0.00    +0.030 A  
DOCKED: ATOM     19  C   UNL     1      12.492  21.515  18.174 -0.18 -0.00    +0.022 A  
DOCKED: ATOM     20  C   UNL     1      13.447  21.742  17.180 -0.31 -0.00    +0.041 A  
DOCKED: ATOM     21 CL   UNL     1      14.936  22.499  17.587 -0.44 +0.01    -0.084 Cl 
DOCKED: ATOM     22  C   UNL     1      13.199  21.372  15.857 -0.33 -0.00    +0.022 A  
DOCKED: ATOM     23  C   UNL     1      11.979  20.785  15.517 -0.39 -0.00    +0.030 A  
DOCKED: ENDBRANCH  14  17
DOCKED: ENDBRANCH   1  14
DOCKED: TORSDOF 4
DOCKED: TER
DOCKED: ENDMDL
________________________________________________________________________________


    FINAL DOCKED STATE:
    ________________________


Run:   50 / 50
Time taken for this run:   0.000s

DOCKED: MODEL        50
DOCKED: USER    Run = 50
DOCKED: USER
DOCKED: USER    Estimated Free Energy of Binding    =  -4.57 kcal/mol  [=(1)+(2)+(3)-(4)]
DOCKED: USER
DOCKED: USER    (1) Final Intermolecular Energy     =  -5.76 kcal/mol
DOCKED: USER        vdW + Hbond + desolv Energy     =  -5.59 kcal/mol
DOCKED: USER        Electrostatic Energy            =  -0.17 kcal/mol
DOCKED: USER        Moving Ligand-Fixed Receptor    =  -5.76 kcal/mol
DOCKED: USER        Moving Ligand-Moving Receptor   =  +0.00 kcal/mol
DOCKED: USER    (2) Final Total Internal Energy     =  -1.48 kcal/mol
DOCKED: USER    (3) Torsional Free Energy           =  +1.19 kcal/mol
DOCKED: USER    (4) Unbound System's Energy         =  -1.48 kcal/mol
DOCKED: USER
DOCKED: USER
DOCKED: REMARK  Name = 
DOCKED: REMARK  5 active torsions:
DOCKED: REMARK  status: ('A' for Active; 'I' for Inactive)
DOCKED: REMARK    1  A    between atoms: C_1  and  C_2
DOCKED: REMARK    2  A    between atoms: N_4  and  C_5
DOCKED: REMARK    3  A    between atoms: C_8  and  N_9
DOCKED: REMARK    4  A    between atoms: N_9  and  S_10
DOCKED: REMARK    5  A    between atoms: S_10  and  C_13
DOCKED: REMARK                            x       y       z     vdW  Elec       q    Type
DOCKED: REMARK                         _______ _______ _______ _____ _____    ______ ____
DOCKED: USER                              x       y       z     vdW  Elec       q    Type
DOCKED: USER                           _______ _______ _______ _____ _____    ______ ____
DOCKED: ROOT
DOCKED: ATOM      1  N   UNL     1       8.640  21.362  15.586 -0.25 +0.04    -0.216 N  
DOCKED: ATOM      2  H   UNL     1       8.389  21.318  14.599 -0.06 -0.04    +0.174 HD 
DOCKED: ENDROOT
DOCKED: BRANCH   1   6
DOCKED: ATOM      3  C   UNL     1      10.114  25.059  17.007 -0.18 -0.01    +0.033 A  
DOCKED: ATOM      4  C   UNL     1       9.245  24.294  17.791 -0.17 -0.01    +0.025 A  
DOCKED: ATOM      5  C   UNL     1       8.746  23.074  17.323 -0.17 -0.01    +0.026 A  
DOCKED: ATOM      6  C   UNL     1       9.127  22.607  16.071 -0.30 -0.01    +0.048 A  
DOCKED: ATOM      7  C   UNL     1       9.959  23.380  15.264 -0.38 -0.00    +0.026 A  
DOCKED: ATOM      8  C   UNL     1      10.441  24.609  15.724 -0.24 -0.00    +0.025 A  
DOCKED: BRANCH   3  12
DOCKED: ATOM      9  C   UNL     1      12.308  27.888  18.187 -0.17 -0.00    +0.109 C  
DOCKED: ATOM     10  C   UNL     1      12.033  26.488  17.706 -0.15 +0.01    +0.214 C  
DOCKED: ATOM     11  O   UNL     1      12.947  25.680  17.574 -0.15 -0.04    -0.276 OA 
DOCKED: ATOM     12  N   UNL     1      10.692  26.270  17.441 -0.15 +0.13    -0.286 N  
DOCKED: ATOM     13  H   UNL     1      10.085  27.081  17.454 -0.19 -0.24    +0.155 HD 
DOCKED: ENDBRANCH   3  12
DOCKED: ENDBRANCH   1   6
DOCKED: BRANCH   1  14
DOCKED: ATOM     14  S   UNL     1       9.463  19.954  16.048 -0.47 -0.01    +0.072 S  
DOCKED: ATOM     15  O   UNL     1       8.793  19.455  17.231 -0.18 +0.02    -0.150 OA 
DOCKED: ATOM     16  O   UNL     1       9.643  19.116  14.883 -0.37 +0.03    -0.150 OA 
DOCKED: BRANCH  14  17
DOCKED: ATOM     17  C   UNL     1      11.039  20.585  16.558 -0.25 -0.01    +0.109 A  
DOCKED: ATOM     18  C   UNL     1      11.267  20.832  17.917 -0.16 -0.00    +0.030 A  
DOCKED: ATOM     19  C   UNL     1      12.467  21.426  18.312 -0.17 -0.00    +0.022 A  
DOCKED: ATOM     20  C   UNL     1      13.430  21.749  17.354 -0.30 -0.01    +0.041 A  
DOCKED: ATOM     21 CL   UNL     1      14.897  22.504  17.842 -0.41 +0.01    -0.084 Cl 
DOCKED: ATOM     22  C   UNL     1      13.210  21.478  16.002 -0.33 -0.00    +0.022 A  
DOCKED: ATOM     23  C   UNL     1      12.008  20.893  15.599 -0.40 -0.00    +0.030 A  
DOCKED: ENDBRANCH  14  17
DOCKED: ENDBRANCH   1  14
DOCKED: TORSDOF 4
DOCKED: TER
DOCKED: ENDMDL
________________________________________________________________________________


    CLUSTERING HISTOGRAM
    ____________________


________________________________________________________________________________
     |           |     |           |     |
Clus | Lowest    | Run | Mean      | Num | Histogram
-ter | Binding   |     | Binding   | in  |
Rank | Energy    |     | Energy    | Clus|    5    10   15   20   25   30   35
_____|___________|_____|___________|_____|____:____|____:____|____:____|____:___
   1 |     -4.59 |  24 |     -4.55 |  44 |############################################
   2 |     -4.46 |   9 |     -4.46 |   1 |#
   3 |     -4.25 |  20 |     -4.24 |   5 |#####
_____|___________|_____|___________|_____|______________________________________


    RMSD TABLE
    __________


_______________________________________________________________________
     |      |      |           |         |                 |
Rank | Sub- | Run  | Binding   | Cluster | Reference       | Grep
     | Rank |      | Energy    | RMSD    | RMSD            | Pattern
_____|______|______|___________|_________|_________________|___________
   1      1     24       -4.59      0.00     25.18           RANKING
   1      2     46       -4.59      0.06     25.20           RANKING
   1      3     49       -4.59      0.06     25.22           RANKING
   1      4     22       -4.58      0.08     25.20           RANKING
   1      5     29       -4.58      0.06     25.20           RANKING
   1      6      6       -4.58      0.04     25.18           RANKING
   1      7     16       -4.58      0.06     25.19           RANKING
   1      8     45       -4.58      0.02     25.18           RANKING
   1      9     35       -4.57      0.06     25.19           RANKING
   1     10     14       -4.57      0.14     25.24           RANKING
   1     11      2       -4.57      0.06     25.20           RANKING
   1     12     34       -4.57      0.07     25.21           RANKING
   1     13     40       -4.57      0.06     25.20           RANKING
   1     14     10       -4.57      0.05     25.20           RANKING
   1     15     18       -4.57      0.12     25.23           RANKING
   1     16     41       -4.57      0.05     25.18           RANKING
   1     17     31       -4.57      0.20     25.25           RANKING
   1     18     37       -4.57      0.17     25.25           RANKING
   1     19      3       -4.57      0.05     25.18           RANKING
   1     20     39       -4.57      0.18     25.26           RANKING
   1     21     33       -4.57      0.17     25.25           RANKING
   1     22     11       -4.57      0.10     25.20           RANKING
   1     23     50       -4.57      0.19     25.26           RANKING
   1     24     42       -4.56      0.07     25.19           RANKING
   1     25     43       -4.56      0.12     25.24           RANKING
   1     26     25       -4.56      0.13     25.24           RANKING
   1     27     23       -4.56      0.21     25.28           RANKING
   1     28      1       -4.56      0.19     25.26           RANKING
   1     29     17       -4.56      0.20     25.26           RANKING
   1     30     38       -4.56      0.12     25.20           RANKING
   1     31     44       -4.56      0.11     25.20           RANKING
   1     32     26       -4.55      0.20     25.27           RANKING
   1     33     28       -4.55      0.20     25.22           RANKING
   1     34     27       -4.55      0.22     25.27           RANKING
   1     35     32       -4.55      0.22     25.26           RANKING
   1     36      5       -4.53      0.23     25.22           RANKING
   1     37      4       -4.53      0.23     25.24           RANKING
   1     38      7       -4.52      0.31     25.23           RANKING
   1     39     48       -4.51      0.34     25.25           RANKING
   1     40     15       -4.51      0.19     25.21           RANKING
   1     41     13       -4.50      0.35     25.19           RANKING
   1     42      8       -4.50      0.34     25.16           RANKING
   1     43     36       -4.42      0.47     25.26           RANKING
   1     44     30       -4.36      0.59     25.24           RANKING
   2      1      9       -4.46      0.00     26.99           RANKING
   3      1     20       -4.25      0.00     25.08           RANKING
   3      2     19       -4.25      0.03     25.09           RANKING
   3      3     21       -4.24      0.04     25.08           RANKING
   3      4     47       -4.24      0.08     25.08           RANKING
   3      5     12       -4.22      0.41     24.88           RANKING

Run time 0.886 sec
Idle time 0.347 sec
