AutoDock-GPU version: v1.6-14-g28a61394827e4a7cc1a0c277bf23f1fdc917bb4f

**********************************************************
**    AutoDock-GPU AUTODOCKTOOLS-COMPATIBLE DLG FILE    **
**********************************************************


    DOCKING PARAMETERS
    ________________________


Ligand file:                               ligands_nrun50/0/ligand2.pdbqt
Grid fld file:                             2g76/2g76.maps.fld

Random seed:                               0
Number of runs:                            50
Number of energy evaluations:              480000
Number of generations:                     42000
Size of population:                        150
Rate of crossover:                         80.000000%
Tournament selection probability limit:    60.000000%
Rate of mutation:                          2.000000%
Maximal allowed delta movement:            +/- 6.000000A
Maximal allowed delta angle:               +/- 90.000000

Rate of local search:                      100.000000%
Maximal number of local search iterations: 300
Rho lower bound:                           0.010000
Spread of local search delta movement:     2.000000A
Spread of local search delta angle:        74.999999
Limit of consecutive successes/failures:   4

Handle symmetry during clustering:         YES
RMSD tolerance:                            2.000000A

Program call in command line was:          ../bin/autodock_gpu_128wi -M 2g76/2g76.maps.fld -L ligands_nrun50/0/ligand2.pdbqt -N outs_nrun50/ligand2 -nrun 50 -s 0 


    GRID PARAMETERS
    ________________________


Receptor name:                             2g76
Number of grid points (x, y, z):           61, 61, 61
Grid center (x, y, z):                     14.547000, 25.866000, 14.134000A
Grid size (x, y, z):                       22.500000, 22.500000, 22.500000A
Grid spacing:                              0.375000A


    LIGAND PARAMETERS
    ________________________


Ligand name:                               ligands_nrun50/0/ligand2
Number of atoms:                           20
Number of rotatable bonds:                 1
Number of atom types:                      3


    DUMMY DATA (only for ADT-compatibility)
    ________________________


DPF> outlev 1
DPF> ga_run 50
DPF> fld 2g76/2g76.maps.fld
DPF> move ligands_nrun50/0/ligand2.pdbqt


    COUNTER STATES
    ________________________


Number of energy evaluations performed:    498023
Number of generations used:                25


    INPUT LIGAND PDBQT FILE:
    ________________________


INPUT-LIGAND-PDBQT: REMARK  Name = 
INPUT-LIGAND-PDBQT: REMARK  2 active torsions:
INPUT-LIGAND-PDBQT: REMARK  status: ('A' for Active; 'I' for Inactive)
INPUT-LIGAND-PDBQT: REMARK    1  A    between atoms: C_8  and  C_9
INPUT-LIGAND-PDBQT: REMARK    2  A    between atoms: C_10  and  C_11
INPUT-LIGAND-PDBQT: REMARK                            x       y       z     vdW  Elec       q    Type
INPUT-LIGAND-PDBQT: REMARK                         _______ _______ _______ _____ _____    ______ ____
INPUT-LIGAND-PDBQT: ROOT
INPUT-LIGAND-PDBQT: ATOM      1  C   UNL     1       0.128  -1.617   0.723  0.00  0.00    +0.049 C 
INPUT-LIGAND-PDBQT: ATOM      2  C   UNL     1      -1.252  -1.999   0.221  0.00  0.00    -0.004 C 
INPUT-LIGAND-PDBQT: ATOM      3  C   UNL     1      -2.110  -0.915  -0.404  0.00  0.00    +0.004 C 
INPUT-LIGAND-PDBQT: ATOM      4  C   UNL     1      -1.869   0.438   0.277  0.00  0.00    +0.012 C 
INPUT-LIGAND-PDBQT: ATOM      5  C   UNL     1      -0.378   0.809   0.340  0.00  0.00    +0.063 C 
INPUT-LIGAND-PDBQT: ATOM      6  C   UNL     1       0.499  -0.380  -0.069  0.00  0.00    +0.181 C 
INPUT-LIGAND-PDBQT: ATOM      7  O   UNL     1       1.831   0.131  -0.079  0.00  0.00    -0.492 OA
INPUT-LIGAND-PDBQT: ATOM      8  C   UNL     1       1.528   1.315  -0.809  0.00  0.00    +0.099 C 
INPUT-LIGAND-PDBQT: ATOM      9  C   UNL     1       2.486   1.702  -1.881  0.00  0.00    +0.086 C 
INPUT-LIGAND-PDBQT: ATOM     10  C   UNL     1       0.273   1.762  -0.615  0.00  0.00    -0.000 C 
INPUT-LIGAND-PDBQT: ENDROOT
INPUT-LIGAND-PDBQT: BRANCH  10  11
INPUT-LIGAND-PDBQT: ATOM     11  C   UNL     1      -0.459   2.726  -1.389  0.00  0.00    -0.040 C 
INPUT-LIGAND-PDBQT: ATOM     12  C   UNL     1      -0.927   3.985  -0.707  0.00  0.00    +0.040 C 
INPUT-LIGAND-PDBQT: ATOM     13  C   UNL     1      -2.162   4.608  -1.373  0.00  0.00    +0.040 C 
INPUT-LIGAND-PDBQT: ATOM     14  C   UNL     1      -2.119   4.530  -2.884  0.00  0.00    -0.040 A 
INPUT-LIGAND-PDBQT: ATOM     15  C   UNL     1      -2.800   5.463  -3.677  0.00  0.00    +0.004 A 
INPUT-LIGAND-PDBQT: ATOM     16  C   UNL     1      -2.799   5.338  -5.067  0.00  0.00    +0.000 A 
INPUT-LIGAND-PDBQT: ATOM     17  C   UNL     1      -2.138   4.272  -5.675  0.00  0.00    +0.001 A 
INPUT-LIGAND-PDBQT: ATOM     18  C   UNL     1      -1.471   3.330  -4.892  0.00  0.00    +0.008 A 
INPUT-LIGAND-PDBQT: ATOM     19  C   UNL     1      -1.449   3.460  -3.499  0.00  0.00    -0.022 A 
INPUT-LIGAND-PDBQT: ATOM     20  C   UNL     1      -0.735   2.479  -2.681  0.00  0.00    +0.012 C 
INPUT-LIGAND-PDBQT: ENDBRANCH  10  11
INPUT-LIGAND-PDBQT: TORSDOF 1


    FINAL DOCKED STATE:
    ________________________


Run:   1 / 50
Time taken for this run:   0.000s

DOCKED: MODEL        1
DOCKED: USER    Run = 1
DOCKED: USER
DOCKED: USER    Estimated Free Energy of Binding    =  -4.95 kcal/mol  [=(1)+(2)+(3)-(4)]
DOCKED: USER
DOCKED: USER    (1) Final Intermolecular Energy     =  -5.25 kcal/mol
DOCKED: USER        vdW + Hbond + desolv Energy     =  -5.25 kcal/mol
DOCKED: USER        Electrostatic Energy            =  +0.00 kcal/mol
DOCKED: USER        Moving Ligand-Fixed Receptor    =  -5.25 kcal/mol
DOCKED: USER        Moving Ligand-Moving Receptor   =  +0.00 kcal/mol
DOCKED: USER    (2) Final Total Internal Energy     =  -0.51 kcal/mol
DOCKED: USER    (3) Torsional Free Energy           =  +0.30 kcal/mol
DOCKED: USER    (4) Unbound System's Energy         =  -0.51 kcal/mol
DOCKED: USER
DOCKED: USER
DOCKED: REMARK  Name = 
DOCKED: REMARK  2 active torsions:
DOCKED: REMARK  status: ('A' for Active; 'I' for Inactive)
DOCKED: REMARK    1  A    between atoms: C_8  and  C_9
DOCKED: REMARK    2  A    between atoms: C_10  and  C_11
DOCKED: REMARK                            x       y       z     vdW  Elec       q    Type
DOCKED: REMARK                         _______ _______ _______ _____ _____    ______ ____
DOCKED: USER                              x       y       z     vdW  Elec       q    Type
DOCKED: USER                           _______ _______ _______ _____ _____    ______ ____
DOCKED: ROOT
DOCKED: ATOM      1  C   UNL     1      12.705  21.365  16.634 -0.36 -0.01    +0.049 C  
DOCKED: ATOM      2  C   UNL     1      12.882  22.845  16.914 -0.27 -0.00    -0.004 C  
DOCKED: ATOM      3  C   UNL     1      11.690  23.760  16.700 -0.27 +0.00    +0.004 C  
DOCKED: ATOM      4  C   UNL     1      10.834  23.281  15.521 -0.41 +0.00    +0.012 C  
DOCKED: ATOM      5  C   UNL     1      10.444  21.798  15.640 -0.21 -0.00    +0.063 C  
DOCKED: ATOM      6  C   UNL     1      11.217  21.119  16.777 -0.22 -0.02    +0.181 C  
DOCKED: ATOM      7  O   UNL     1      10.680  19.799  16.851 -0.09 +0.07    -0.492 OA 
DOCKED: ATOM      8  C   UNL     1       9.313  20.195  16.807 -0.26 -0.02    +0.099 C  
DOCKED: ATOM      9  C   UNL     1       8.386  19.499  17.742 -0.15 -0.01    +0.086 C  
DOCKED: ATOM     10  C   UNL     1       9.104  21.337  16.126 -0.34 +0.00    -0.000 C  
DOCKED: ENDROOT
DOCKED: BRANCH  10  11
DOCKED: ATOM     11  C   UNL     1       7.935  22.173  16.126 -0.33 +0.01    -0.040 C  
DOCKED: ATOM     12  C   UNL     1       8.044  23.557  16.709 -0.27 -0.02    +0.040 C  
DOCKED: ATOM     13  C   UNL     1       6.705  24.102  17.225 -0.21 -0.03    +0.040 C  
DOCKED: ATOM     14  C   UNL     1       5.538  23.741  16.331 -0.23 +0.02    -0.040 A  
DOCKED: ATOM     15  C   UNL     1       4.388  24.540  16.283 -0.22 -0.00    +0.004 A  
DOCKED: ATOM     16  C   UNL     1       3.299  24.158  15.500 -0.22 -0.00    +0.000 A  
DOCKED: ATOM     17  C   UNL     1       3.339  22.968  14.775 -0.28 -0.00    +0.001 A  
DOCKED: ATOM     18  C   UNL     1       4.473  22.158  14.830 -0.35 -0.00    +0.008 A  
DOCKED: ATOM     19  C   UNL     1       5.578  22.545  15.596 -0.25 +0.01    -0.022 A  
DOCKED: ATOM     20  C   UNL     1       6.774  21.702  15.639 -0.29 -0.00    +0.012 C  
DOCKED: ENDBRANCH  10  11
DOCKED: TORSDOF 1
DOCKED: TER
DOCKED: ENDMDL
________________________________________________________________________________


    FINAL DOCKED STATE:
    ________________________


Run:   2 / 50
Time taken for this run:   0.000s

DOCKED: MODEL        2
DOCKED: USER    Run = 2
DOCKED: USER
DOCKED: USER    Estimated Free Energy of Binding    =  -4.99 kcal/mol  [=(1)+(2)+(3)-(4)]
DOCKED: USER
DOCKED: USER    (1) Final Intermolecular Energy     =  -5.28 kcal/mol
DOCKED: USER        vdW + Hbond + desolv Energy     =  -5.29 kcal/mol
DOCKED: USER        Electrostatic Energy            =  +0.00 kcal/mol
DOCKED: USER        Moving Ligand-Fixed Receptor    =  -5.28 kcal/mol
DOCKED: USER        Moving Ligand-Moving Receptor   =  +0.00 kcal/mol
DOCKED: USER    (2) Final Total Internal Energy     =  -0.50 kcal/mol
DOCKED: USER    (3) Torsional Free Energy           =  +0.30 kcal/mol
DOCKED: USER    (4) Unbound System's Energy         =  -0.50 kcal/mol
DOCKED: USER
DOCKED: USER
DOCKED: REMARK  Name = 
DOCKED: REMARK  2 active torsions:
DOCKED: REMARK  status: ('A' for Active; 'I' for Inactive)
DOCKED: REMARK    1  A    between atoms: C_8  and  C_9
DOCKED: REMARK    2  A    between atoms: C_10  and  C_11
DOCKED: REMARK                            x       y       z     vdW  Elec       q    Type
DOCKED: REMARK                         _______ _______ _______ _____ _____    ______ ____
DOCKED: USER                              x       y       z     vdW  Elec       q    Type
DOCKED: USER                           _______ _______ _______ _____ _____    ______ ____
DOCKED: ROOT
DOCKED: ATOM      1  C   UNL     1      12.789  21.380  16.624 -0.36 -0.01    +0.049 C  
DOCKED: ATOM      2  C   UNL     1      12.948  22.849  16.969 -0.27 -0.00    -0.004 C  
DOCKED: ATOM      3  C   UNL     1      11.749  23.760  16.783 -0.26 +0.00    +0.004 C  
DOCKED: ATOM      4  C   UNL     1      10.907  23.323  15.578 -0.40 +0.00    +0.012 C  
DOCKED: ATOM      5  C   UNL     1      10.531  21.833  15.631 -0.22 -0.00    +0.063 C  
DOCKED: ATOM      6  C   UNL     1      11.302  21.114  16.744 -0.23 -0.02    +0.181 C  
DOCKED: ATOM      7  O   UNL     1      10.778  19.787  16.757 -0.10 +0.07    -0.492 OA 
DOCKED: ATOM      8  C   UNL     1       9.407  20.171  16.719 -0.27 -0.01    +0.099 C  
DOCKED: ATOM      9  C   UNL     1       8.481  19.427  17.616 -0.17 -0.01    +0.086 C  
DOCKED: ATOM     10  C   UNL     1       9.192  21.339  16.085 -0.35 +0.00    -0.000 C  
DOCKED: ENDROOT
DOCKED: BRANCH  10  11
DOCKED: ATOM     11  C   UNL     1       8.015  22.162  16.110 -0.33 +0.01    -0.040 C  
DOCKED: ATOM     12  C   UNL     1       8.119  23.542  16.706 -0.27 -0.02    +0.040 C  
DOCKED: ATOM     13  C   UNL     1       6.781  24.067  17.247 -0.21 -0.03    +0.040 C  
DOCKED: ATOM     14  C   UNL     1       5.605  23.703  16.367 -0.23 +0.02    -0.040 A  
DOCKED: ATOM     15  C   UNL     1       4.447  24.490  16.344 -0.22 -0.00    +0.004 A  
DOCKED: ATOM     16  C   UNL     1       3.350  24.105  15.572 -0.21 -0.00    +0.000 A  
DOCKED: ATOM     17  C   UNL     1       3.391  22.922  14.836 -0.28 -0.00    +0.001 A  
DOCKED: ATOM     18  C   UNL     1       4.535  22.124  14.865 -0.34 -0.00    +0.008 A  
DOCKED: ATOM     19  C   UNL     1       5.647  22.515  15.619 -0.26 +0.01    -0.022 A  
DOCKED: ATOM     20  C   UNL     1       6.851  21.684  15.636 -0.29 -0.00    +0.012 C  
DOCKED: ENDBRANCH  10  11
DOCKED: TORSDOF 1
DOCKED: TER
DOCKED: ENDMDL
________________________________________________________________________________


    FINAL DOCKED STATE:
    ________________________


Run:   3 / 50
Time taken for this run:   0.000s

DOCKED: MODEL        3
DOCKED: USER    Run = 3
DOCKED: USER
DOCKED: USER    Estimated Free Energy of Binding    =  -5.07 kcal/mol  [=(1)+(2)+(3)-(4)]
DOCKED: USER
DOCKED: USER    (1) Final Intermolecular Energy     =  -5.37 kcal/mol
DOCKED: USER        vdW + Hbond + desolv Energy     =  -5.38 kcal/mol
DOCKED: USER        Electrostatic Energy            =  +0.01 kcal/mol
DOCKED: USER        Moving Ligand-Fixed Receptor    =  -5.37 kcal/mol
DOCKED: USER        Moving Ligand-Moving Receptor   =  +0.00 kcal/mol
DOCKED: USER    (2) Final Total Internal Energy     =  -0.44 kcal/mol
DOCKED: USER    (3) Torsional Free Energy           =  +0.30 kcal/mol
DOCKED: USER    (4) Unbound System's Energy         =  -0.44 kcal/mol
DOCKED: USER
DOCKED: USER
DOCKED: REMARK  Name = 
DOCKED: REMARK  2 active torsions:
DOCKED: REMARK  status: ('A' for Active; 'I' for Inactive)
DOCKED: REMARK    1  A    between atoms: C_8  and  C_9
DOCKED: REMARK    2  A    between atoms: C_10  and  C_11
DOCKED: REMARK                            x       y       z     vdW  Elec       q    Type
DOCKED: REMARK                         _______ _______ _______ _____ _____    ______ ____
DOCKED: USER                              x       y       z     vdW  Elec       q    Type
DOCKED: USER                           _______ _______ _______ _____ _____    ______ ____
DOCKED: ROOT
DOCKED: ATOM      1  C   UNL     1      13.052  21.376  16.662 -0.34 -0.01    +0.049 C  
DOCKED: ATOM      2  C   UNL     1      13.182  22.817  17.120 -0.29 +0.00    -0.004 C  
DOCKED: ATOM      3  C   UNL     1      11.975  23.725  16.971 -0.24 +0.00    +0.004 C  
DOCKED: ATOM      4  C   UNL     1      11.172  23.369  15.714 -0.36 +0.00    +0.012 C  
DOCKED: ATOM      5  C   UNL     1      10.815  21.875  15.645 -0.27 -0.00    +0.063 C  
DOCKED: ATOM      6  C   UNL     1      11.567  21.083  16.721 -0.24 -0.02    +0.181 C  
DOCKED: ATOM      7  O   UNL     1      11.061  19.753  16.621 -0.10 +0.07    -0.492 OA 
DOCKED: ATOM      8  C   UNL     1       9.687  20.122  16.574 -0.30 -0.01    +0.099 C  
DOCKED: ATOM      9  C   UNL     1       8.747  19.302  17.388 -0.21 -0.01    +0.086 C  
DOCKED: ATOM     10  C   UNL     1       9.471  21.332  16.024 -0.35 +0.00    -0.000 C  
DOCKED: ENDROOT
DOCKED: BRANCH  10  11
DOCKED: ATOM     11  C   UNL     1       8.283  22.137  16.079 -0.34 +0.01    -0.040 C  
DOCKED: ATOM     12  C   UNL     1       8.378  23.515  16.681 -0.28 -0.02    +0.040 C  
DOCKED: ATOM     13  C   UNL     1       7.045  24.016  17.253 -0.21 -0.03    +0.040 C  
DOCKED: ATOM     14  C   UNL     1       5.856  23.640  16.395 -0.24 +0.02    -0.040 A  
DOCKED: ATOM     15  C   UNL     1       4.685  24.409  16.401 -0.22 -0.00    +0.004 A  
DOCKED: ATOM     16  C   UNL     1       3.578  24.011  15.651 -0.22 -0.00    +0.000 A  
DOCKED: ATOM     17  C   UNL     1       3.622  22.834  14.906 -0.30 -0.00    +0.001 A  
DOCKED: ATOM     18  C   UNL     1       4.778  22.054  14.907 -0.33 -0.00    +0.008 A  
DOCKED: ATOM     19  C   UNL     1       5.900  22.457  15.640 -0.24 +0.01    -0.022 A  
DOCKED: ATOM     20  C   UNL     1       7.117  21.644  15.626 -0.29 -0.00    +0.012 C  
DOCKED: ENDBRANCH  10  11
DOCKED: TORSDOF 1
DOCKED: TER
DOCKED: ENDMDL
________________________________________________________________________________


    FINAL DOCKED STATE:
    ________________________


Run:   4 / 50
Time taken for this run:   0.000s

DOCKED: MODEL        4
DOCKED: USER    Run = 4
DOCKED: USER
DOCKED: USER    Estimated Free Energy of Binding    =  -5.06 kcal/mol  [=(1)+(2)+(3)-(4)]
DOCKED: USER
DOCKED: USER    (1) Final Intermolecular Energy     =  -5.36 kcal/mol
DOCKED: USER        vdW + Hbond + desolv Energy     =  -5.37 kcal/mol
DOCKED: USER        Electrostatic Energy            =  +0.01 kcal/mol
DOCKED: USER        Moving Ligand-Fixed Receptor    =  -5.36 kcal/mol
DOCKED: USER        Moving Ligand-Moving Receptor   =  +0.00 kcal/mol
DOCKED: USER    (2) Final Total Internal Energy     =  -0.45 kcal/mol
DOCKED: USER    (3) Torsional Free Energy           =  +0.30 kcal/mol
DOCKED: USER    (4) Unbound System's Energy         =  -0.45 kcal/mol
DOCKED: USER
DOCKED: USER
DOCKED: REMARK  Name = 
DOCKED: REMARK  2 active torsions:
DOCKED: REMARK  status: ('A' for Active; 'I' for Inactive)
DOCKED: REMARK    1  A    between atoms: C_8  and  C_9
DOCKED: REMARK    2  A    between atoms: C_10  and  C_11
DOCKED: REMARK                            x       y       z     vdW  Elec       q    Type
DOCKED: REMARK                         _______ _______ _______ _____ _____    ______ ____
DOCKED: USER                              x       y       z     vdW  Elec       q    Type
DOCKED: USER                           _______ _______ _______ _____ _____    ______ ____
DOCKED: ROOT
DOCKED: ATOM      1  C   UNL     1      13.045  21.368  16.661 -0.34 -0.01    +0.049 C  
DOCKED: ATOM      2  C   UNL     1      13.180  22.804  17.132 -0.29 +0.00    -0.004 C  
DOCKED: ATOM      3  C   UNL     1      11.975  23.716  16.996 -0.24 +0.00    +0.004 C  
DOCKED: ATOM      4  C   UNL     1      11.167  23.376  15.739 -0.36 +0.00    +0.012 C  
DOCKED: ATOM      5  C   UNL     1      10.806  21.883  15.656 -0.27 -0.00    +0.063 C  
DOCKED: ATOM      6  C   UNL     1      11.560  21.079  16.722 -0.24 -0.02    +0.181 C  
DOCKED: ATOM      7  O   UNL     1      11.050  19.751  16.610 -0.10 +0.07    -0.492 OA 
DOCKED: ATOM      8  C   UNL     1       9.677  20.124  16.571 -0.30 -0.01    +0.099 C  
DOCKED: ATOM      9  C   UNL     1       8.738  19.297  17.379 -0.21 -0.01    +0.086 C  
DOCKED: ATOM     10  C   UNL     1       9.463  21.339  16.034 -0.35 +0.00    -0.000 C  
DOCKED: ENDROOT
DOCKED: BRANCH  10  11
DOCKED: ATOM     11  C   UNL     1       8.276  22.146  16.101 -0.34 +0.01    -0.040 C  
DOCKED: ATOM     12  C   UNL     1       8.373  23.511  16.732 -0.27 -0.02    +0.040 C  
DOCKED: ATOM     13  C   UNL     1       7.039  24.004  17.309 -0.21 -0.03    +0.040 C  
DOCKED: ATOM     14  C   UNL     1       5.852  23.649  16.439 -0.23 +0.02    -0.040 A  
DOCKED: ATOM     15  C   UNL     1       4.684  24.422  16.457 -0.22 -0.00    +0.004 A  
DOCKED: ATOM     16  C   UNL     1       3.579  24.043  15.693 -0.22 -0.00    +0.000 A  
DOCKED: ATOM     17  C   UNL     1       3.623  22.881  14.924 -0.29 -0.00    +0.001 A  
DOCKED: ATOM     18  C   UNL     1       4.776  22.097  14.914 -0.33 -0.00    +0.008 A  
DOCKED: ATOM     19  C   UNL     1       5.896  22.482  15.659 -0.24 +0.01    -0.022 A  
DOCKED: ATOM     20  C   UNL     1       7.111  21.666  15.633 -0.30 -0.00    +0.012 C  
DOCKED: ENDBRANCH  10  11
DOCKED: TORSDOF 1
DOCKED: TER
DOCKED: ENDMDL
________________________________________________________________________________


    FINAL DOCKED STATE:
    ________________________


Run:   5 / 50
Time taken for this run:   0.000s

DOCKED: MODEL        5
DOCKED: USER    Run = 5
DOCKED: USER
DOCKED: USER    Estimated Free Energy of Binding    =  -5.02 kcal/mol  [=(1)+(2)+(3)-(4)]
DOCKED: USER
DOCKED: USER    (1) Final Intermolecular Energy     =  -5.32 kcal/mol
DOCKED: USER        vdW + Hbond + desolv Energy     =  -5.33 kcal/mol
DOCKED: USER        Electrostatic Energy            =  +0.01 kcal/mol
DOCKED: USER        Moving Ligand-Fixed Receptor    =  -5.32 kcal/mol
DOCKED: USER        Moving Ligand-Moving Receptor   =  +0.00 kcal/mol
DOCKED: USER    (2) Final Total Internal Energy     =  -0.48 kcal/mol
DOCKED: USER    (3) Torsional Free Energy           =  +0.30 kcal/mol
DOCKED: USER    (4) Unbound System's Energy         =  -0.48 kcal/mol
DOCKED: USER
DOCKED: USER
DOCKED: REMARK  Name = 
DOCKED: REMARK  2 active torsions:
DOCKED: REMARK  status: ('A' for Active; 'I' for Inactive)
DOCKED: REMARK    1  A    between atoms: C_8  and  C_9
DOCKED: REMARK    2  A    between atoms: C_10  and  C_11
DOCKED: REMARK                            x       y       z     vdW  Elec       q    Type
DOCKED: REMARK                         _______ _______ _______ _____ _____    ______ ____
DOCKED: USER                              x       y       z     vdW  Elec       q    Type
DOCKED: USER                           _______ _______ _______ _____ _____    ______ ____
DOCKED: ROOT
DOCKED: ATOM      1  C   UNL     1      13.053  21.401  16.673 -0.34 -0.01    +0.049 C  
DOCKED: ATOM      2  C   UNL     1      13.182  22.845  17.122 -0.28 +0.00    -0.004 C  
DOCKED: ATOM      3  C   UNL     1      11.971  23.748  16.980 -0.24 +0.00    +0.004 C  
DOCKED: ATOM      4  C   UNL     1      11.156  23.383  15.733 -0.36 +0.00    +0.012 C  
DOCKED: ATOM      5  C   UNL     1      10.804  21.888  15.675 -0.27 -0.00    +0.063 C  
DOCKED: ATOM      6  C   UNL     1      11.569  21.104  16.748 -0.24 -0.02    +0.181 C  
DOCKED: ATOM      7  O   UNL     1      11.067  19.771  16.659 -0.10 +0.07    -0.492 OA 
DOCKED: ATOM      8  C   UNL     1       9.691  20.135  16.624 -0.29 -0.01    +0.099 C  
DOCKED: ATOM      9  C   UNL     1       8.763  19.316  17.450 -0.20 -0.01    +0.086 C  
DOCKED: ATOM     10  C   UNL     1       9.466  21.342  16.070 -0.34 +0.00    -0.000 C  
DOCKED: ENDROOT
DOCKED: BRANCH  10  11
DOCKED: ATOM     11  C   UNL     1       8.275  22.142  16.132 -0.33 +0.01    -0.040 C  
DOCKED: ATOM     12  C   UNL     1       8.354  23.492  16.798 -0.27 -0.02    +0.040 C  
DOCKED: ATOM     13  C   UNL     1       7.006  23.966  17.360 -0.20 -0.03    +0.040 C  
DOCKED: ATOM     14  C   UNL     1       5.839  23.627  16.458 -0.23 +0.02    -0.040 A  
DOCKED: ATOM     15  C   UNL     1       4.667  24.395  16.470 -0.22 -0.00    +0.004 A  
DOCKED: ATOM     16  C   UNL     1       3.579  24.030  15.676 -0.22 -0.00    +0.000 A  
DOCKED: ATOM     17  C   UNL     1       3.643  22.888  14.880 -0.30 -0.00    +0.001 A  
DOCKED: ATOM     18  C   UNL     1       4.800  22.109  14.874 -0.33 -0.00    +0.008 A  
DOCKED: ATOM     19  C   UNL     1       5.903  22.479  15.651 -0.24 +0.01    -0.022 A  
DOCKED: ATOM     20  C   UNL     1       7.122  21.669  15.630 -0.30 -0.00    +0.012 C  
DOCKED: ENDBRANCH  10  11
DOCKED: TORSDOF 1
DOCKED: TER
DOCKED: ENDMDL
________________________________________________________________________________


    FINAL DOCKED STATE:
    ________________________


Run:   6 / 50
Time taken for this run:   0.000s

DOCKED: MODEL        6
DOCKED: USER    Run = 6
DOCKED: USER
DOCKED: USER    Estimated Free Energy of Binding    =  -4.99 kcal/mol  [=(1)+(2)+(3)-(4)]
DOCKED: USER
DOCKED: USER    (1) Final Intermolecular Energy     =  -5.28 kcal/mol
DOCKED: USER        vdW + Hbond + desolv Energy     =  -5.29 kcal/mol
DOCKED: USER        Electrostatic Energy            =  +0.00 kcal/mol
DOCKED: USER        Moving Ligand-Fixed Receptor    =  -5.28 kcal/mol
DOCKED: USER        Moving Ligand-Moving Receptor   =  +0.00 kcal/mol
DOCKED: USER    (2) Final Total Internal Energy     =  -0.49 kcal/mol
DOCKED: USER    (3) Torsional Free Energy           =  +0.30 kcal/mol
DOCKED: USER    (4) Unbound System's Energy         =  -0.49 kcal/mol
DOCKED: USER
DOCKED: USER
DOCKED: REMARK  Name = 
DOCKED: REMARK  2 active torsions:
DOCKED: REMARK  status: ('A' for Active; 'I' for Inactive)
DOCKED: REMARK    1  A    between atoms: C_8  and  C_9
DOCKED: REMARK    2  A    between atoms: C_10  and  C_11
DOCKED: REMARK                            x       y       z     vdW  Elec       q    Type
DOCKED: REMARK                         _______ _______ _______ _____ _____    ______ ____
DOCKED: USER                              x       y       z     vdW  Elec       q    Type
DOCKED: USER                           _______ _______ _______ _____ _____    ______ ____
DOCKED: ROOT
DOCKED: ATOM      1  C   UNL     1      12.775  21.382  16.622 -0.36 -0.01    +0.049 C  
DOCKED: ATOM      2  C   UNL     1      12.934  22.850  16.971 -0.27 -0.00    -0.004 C  
DOCKED: ATOM      3  C   UNL     1      11.734  23.760  16.793 -0.26 +0.00    +0.004 C  
DOCKED: ATOM      4  C   UNL     1      10.889  23.327  15.589 -0.40 +0.00    +0.012 C  
DOCKED: ATOM      5  C   UNL     1      10.514  21.837  15.637 -0.23 -0.00    +0.063 C  
DOCKED: ATOM      6  C   UNL     1      11.289  21.114  16.745 -0.23 -0.02    +0.181 C  
DOCKED: ATOM      7  O   UNL     1      10.766  19.786  16.754 -0.10 +0.07    -0.492 OA 
DOCKED: ATOM      8  C   UNL     1       9.395  20.169  16.722 -0.27 -0.01    +0.099 C  
DOCKED: ATOM      9  C   UNL     1       8.472  19.421  17.618 -0.17 -0.01    +0.086 C  
DOCKED: ATOM     10  C   UNL     1       9.177  21.339  16.093 -0.35 +0.00    -0.000 C  
DOCKED: ENDROOT
DOCKED: BRANCH  10  11
DOCKED: ATOM     11  C   UNL     1       7.999  22.161  16.125 -0.33 +0.01    -0.040 C  
DOCKED: ATOM     12  C   UNL     1       8.100  23.534  16.737 -0.27 -0.02    +0.040 C  
DOCKED: ATOM     13  C   UNL     1       6.762  24.052  17.281 -0.21 -0.03    +0.040 C  
DOCKED: ATOM     14  C   UNL     1       5.588  23.698  16.394 -0.23 +0.02    -0.040 A  
DOCKED: ATOM     15  C   UNL     1       4.429  24.484  16.378 -0.21 -0.00    +0.004 A  
DOCKED: ATOM     16  C   UNL     1       3.333  24.107  15.600 -0.21 -0.00    +0.000 A  
DOCKED: ATOM     17  C   UNL     1       3.377  22.933  14.850 -0.28 -0.00    +0.001 A  
DOCKED: ATOM     18  C   UNL     1       4.522  22.135  14.873 -0.34 -0.00    +0.008 A  
DOCKED: ATOM     19  C   UNL     1       5.632  22.518  15.633 -0.27 +0.01    -0.022 A  
DOCKED: ATOM     20  C   UNL     1       6.837  21.688  15.643 -0.29 -0.00    +0.012 C  
DOCKED: ENDBRANCH  10  11
DOCKED: TORSDOF 1
DOCKED: TER
DOCKED: ENDMDL
________________________________________________________________________________


    FINAL DOCKED STATE:
    ________________________


Run:   7 / 50
Time taken for this run:   0.000s

DOCKED: MODEL        7
DOCKED: USER    Run = 7
DOCKED: USER
DOCKED: USER    Estimated Free Energy of Binding    =  -4.87 kcal/mol  [=(1)+(2)+(3)-(4)]
DOCKED: USER
DOCKED: USER    (1) Final Intermolecular Energy     =  -5.17 kcal/mol
DOCKED: USER        vdW + Hbond + desolv Energy     =  -5.20 kcal/mol
DOCKED: USER        Electrostatic Energy            =  +0.03 kcal/mol
DOCKED: USER        Moving Ligand-Fixed Receptor    =  -5.17 kcal/mol
DOCKED: USER        Moving Ligand-Moving Receptor   =  +0.00 kcal/mol
DOCKED: USER    (2) Final Total Internal Energy     =  -0.54 kcal/mol
DOCKED: USER    (3) Torsional Free Energy           =  +0.30 kcal/mol
DOCKED: USER    (4) Unbound System's Energy         =  -0.54 kcal/mol
DOCKED: USER
DOCKED: USER
DOCKED: REMARK  Name = 
DOCKED: REMARK  2 active torsions:
DOCKED: REMARK  status: ('A' for Active; 'I' for Inactive)
DOCKED: REMARK    1  A    between atoms: C_8  and  C_9
DOCKED: REMARK    2  A    between atoms: C_10  and  C_11
DOCKED: REMARK                            x       y       z     vdW  Elec       q    Type
DOCKED: REMARK                         _______ _______ _______ _____ _____    ______ ____
DOCKED: USER                              x       y       z     vdW  Elec       q    Type
DOCKED: USER                           _______ _______ _______ _____ _____    ______ ____
DOCKED: ROOT
DOCKED: ATOM      1  C   UNL     1       7.463  18.920  16.450 -0.27 -0.00    +0.049 C  
DOCKED: ATOM      2  C   UNL     1       8.220  18.121  17.495 -0.21 +0.00    -0.004 C  
DOCKED: ATOM      3  C   UNL     1       9.676  18.466  17.741 -0.26 -0.00    +0.004 C  
DOCKED: ATOM      4  C   UNL     1      10.363  18.912  16.444 -0.36 -0.00    +0.012 C  
DOCKED: ATOM      5  C   UNL     1       9.591  20.029  15.723 -0.38 -0.01    +0.063 C  
DOCKED: ATOM      6  C   UNL     1       8.209  20.235  16.354 -0.24 -0.03    +0.181 C  
DOCKED: ATOM      7  O   UNL     1       7.657  21.361  15.674 -0.15 +0.13    -0.492 OA 
DOCKED: ATOM      8  C   UNL     1       8.820  22.177  15.774 -0.34 -0.02    +0.099 C  
DOCKED: ATOM      9  C   UNL     1       8.604  23.605  16.132 -0.27 -0.03    +0.086 C  
DOCKED: ATOM     10  C   UNL     1       9.969  21.476  15.807 -0.27 +0.00    -0.000 C  
DOCKED: ENDROOT
DOCKED: BRANCH  10  11
DOCKED: ATOM     11  C   UNL     1      11.277  21.928  16.191 -0.34 +0.00    -0.040 C  
DOCKED: ATOM     12  C   UNL     1      12.475  21.307  15.522 -0.47 -0.00    +0.040 C  
DOCKED: ATOM     13  C   UNL     1      13.745  21.367  16.383 -0.30 -0.01    +0.040 C  
DOCKED: ATOM     14  C   UNL     1      13.885  22.672  17.136 -0.26 +0.00    -0.040 A  
DOCKED: ATOM     15  C   UNL     1      15.143  23.161  17.511 -0.29 -0.00    +0.004 A  
DOCKED: ATOM     16  C   UNL     1      15.247  24.335  18.259 -0.16 -0.00    +0.000 A  
DOCKED: ATOM     17  C   UNL     1      14.098  25.017  18.657 -0.11 -0.00    +0.001 A  
DOCKED: ATOM     18  C   UNL     1      12.841  24.529  18.301 -0.13 -0.00    +0.008 A  
DOCKED: ATOM     19  C   UNL     1      12.729  23.365  17.533 -0.19 +0.00    -0.022 A  
DOCKED: ATOM     20  C   UNL     1      11.409  22.863  17.148 -0.24 -0.00    +0.012 C  
DOCKED: ENDBRANCH  10  11
DOCKED: TORSDOF 1
DOCKED: TER
DOCKED: ENDMDL
________________________________________________________________________________


    FINAL DOCKED STATE:
    ________________________


Run:   8 / 50
Time taken for this run:   0.000s

DOCKED: MODEL        8
DOCKED: USER    Run = 8
DOCKED: USER
DOCKED: USER    Estimated Free Energy of Binding    =  -5.07 kcal/mol  [=(1)+(2)+(3)-(4)]
DOCKED: USER
DOCKED: USER    (1) Final Intermolecular Energy     =  -5.37 kcal/mol
DOCKED: USER        vdW + Hbond + desolv Energy     =  -5.38 kcal/mol
DOCKED: USER        Electrostatic Energy            =  +0.01 kcal/mol
DOCKED: USER        Moving Ligand-Fixed Receptor    =  -5.37 kcal/mol
DOCKED: USER        Moving Ligand-Moving Receptor   =  +0.00 kcal/mol
DOCKED: USER    (2) Final Total Internal Energy     =  -0.44 kcal/mol
DOCKED: USER    (3) Torsional Free Energy           =  +0.30 kcal/mol
DOCKED: USER    (4) Unbound System's Energy         =  -0.44 kcal/mol
DOCKED: USER
DOCKED: USER
DOCKED: REMARK  Name = 
DOCKED: REMARK  2 active torsions:
DOCKED: REMARK  status: ('A' for Active; 'I' for Inactive)
DOCKED: REMARK    1  A    between atoms: C_8  and  C_9
DOCKED: REMARK    2  A    between atoms: C_10  and  C_11
DOCKED: REMARK                            x       y       z     vdW  Elec       q    Type
DOCKED: REMARK                         _______ _______ _______ _____ _____    ______ ____
DOCKED: USER                              x       y       z     vdW  Elec       q    Type
DOCKED: USER                           _______ _______ _______ _____ _____    ______ ____
DOCKED: ROOT
DOCKED: ATOM      1  C   UNL     1      13.046  21.369  16.671 -0.34 -0.01    +0.049 C  
DOCKED: ATOM      2  C   UNL     1      13.173  22.811  17.125 -0.29 +0.00    -0.004 C  
DOCKED: ATOM      3  C   UNL     1      11.965  23.716  16.974 -0.24 +0.00    +0.004 C  
DOCKED: ATOM      4  C   UNL     1      11.163  23.356  15.717 -0.37 +0.00    +0.012 C  
DOCKED: ATOM      5  C   UNL     1      10.809  21.861  15.651 -0.27 -0.00    +0.063 C  
DOCKED: ATOM      6  C   UNL     1      11.562  21.074  16.730 -0.24 -0.02    +0.181 C  
DOCKED: ATOM      7  O   UNL     1      11.059  19.742  16.632 -0.10 +0.07    -0.492 OA 
DOCKED: ATOM      8  C   UNL     1       9.684  20.108  16.584 -0.30 -0.01    +0.099 C  
DOCKED: ATOM      9  C   UNL     1       8.745  19.288  17.398 -0.21 -0.01    +0.086 C  
DOCKED: ATOM     10  C   UNL     1       9.466  21.316  16.031 -0.35 +0.00    -0.000 C  
DOCKED: ENDROOT
DOCKED: BRANCH  10  11
DOCKED: ATOM     11  C   UNL     1       8.276  22.119  16.083 -0.34 +0.01    -0.040 C  
DOCKED: ATOM     12  C   UNL     1       8.369  23.500  16.677 -0.28 -0.02    +0.040 C  
DOCKED: ATOM     13  C   UNL     1       7.035  24.002  17.249 -0.21 -0.03    +0.040 C  
DOCKED: ATOM     14  C   UNL     1       5.846  23.617  16.395 -0.24 +0.02    -0.040 A  
DOCKED: ATOM     15  C   UNL     1       4.674  24.385  16.398 -0.22 -0.00    +0.004 A  
DOCKED: ATOM     16  C   UNL     1       3.567  23.980  15.651 -0.22 -0.00    +0.000 A  
DOCKED: ATOM     17  C   UNL     1       3.612  22.799  14.913 -0.29 -0.00    +0.001 A  
DOCKED: ATOM     18  C   UNL     1       4.770  22.021  14.916 -0.33 -0.00    +0.008 A  
DOCKED: ATOM     19  C   UNL     1       5.892  22.431  15.645 -0.25 +0.01    -0.022 A  
DOCKED: ATOM     20  C   UNL     1       7.111  21.621  15.635 -0.30 -0.00    +0.012 C  
DOCKED: ENDBRANCH  10  11
DOCKED: TORSDOF 1
DOCKED: TER
DOCKED: ENDMDL
________________________________________________________________________________


    FINAL DOCKED STATE:
    ________________________


Run:   9 / 50
Time taken for this run:   0.000s

DOCKED: MODEL        9
DOCKED: USER    Run = 9
DOCKED: USER
DOCKED: USER    Estimated Free Energy of Binding    =  -4.84 kcal/mol  [=(1)+(2)+(3)-(4)]
DOCKED: USER
DOCKED: USER    (1) Final Intermolecular Energy     =  -5.14 kcal/mol
DOCKED: USER        vdW + Hbond + desolv Energy     =  -5.17 kcal/mol
DOCKED: USER        Electrostatic Energy            =  +0.03 kcal/mol
DOCKED: USER        Moving Ligand-Fixed Receptor    =  -5.14 kcal/mol
DOCKED: USER        Moving Ligand-Moving Receptor   =  +0.00 kcal/mol
DOCKED: USER    (2) Final Total Internal Energy     =  -0.57 kcal/mol
DOCKED: USER    (3) Torsional Free Energy           =  +0.30 kcal/mol
DOCKED: USER    (4) Unbound System's Energy         =  -0.57 kcal/mol
DOCKED: USER
DOCKED: USER
DOCKED: REMARK  Name = 
DOCKED: REMARK  2 active torsions:
DOCKED: REMARK  status: ('A' for Active; 'I' for Inactive)
DOCKED: REMARK    1  A    between atoms: C_8  and  C_9
DOCKED: REMARK    2  A    between atoms: C_10  and  C_11
DOCKED: REMARK                            x       y       z     vdW  Elec       q    Type
DOCKED: REMARK                         _______ _______ _______ _____ _____    ______ ____
DOCKED: USER                              x       y       z     vdW  Elec       q    Type
DOCKED: USER                           _______ _______ _______ _____ _____    ______ ____
DOCKED: ROOT
DOCKED: ATOM      1  C   UNL     1       7.482  18.882  16.491 -0.27 -0.00    +0.049 C  
DOCKED: ATOM      2  C   UNL     1       8.223  18.123  17.576 -0.21 +0.00    -0.004 C  
DOCKED: ATOM      3  C   UNL     1       9.675  18.480  17.833 -0.25 -0.00    +0.004 C  
DOCKED: ATOM      4  C   UNL     1      10.382  18.879  16.531 -0.34 -0.00    +0.012 C  
DOCKED: ATOM      5  C   UNL     1       9.620  19.968  15.757 -0.39 -0.01    +0.063 C  
DOCKED: ATOM      6  C   UNL     1       8.228  20.194  16.358 -0.25 -0.03    +0.181 C  
DOCKED: ATOM      7  O   UNL     1       7.685  21.293  15.628 -0.15 +0.13    -0.492 OA 
DOCKED: ATOM      8  C   UNL     1       8.845  22.114  15.717 -0.34 -0.02    +0.099 C  
DOCKED: ATOM      9  C   UNL     1       8.621  23.555  16.019 -0.28 -0.03    +0.086 C  
DOCKED: ATOM     10  C   UNL     1       9.994  21.418  15.793 -0.26 +0.00    -0.000 C  
DOCKED: ENDROOT
DOCKED: BRANCH  10  11
DOCKED: ATOM     11  C   UNL     1      11.296  21.886  16.182 -0.34 +0.00    -0.040 C  
DOCKED: ATOM     12  C   UNL     1      12.501  21.308  15.488 -0.47 -0.00    +0.040 C  
DOCKED: ATOM     13  C   UNL     1      13.776  21.371  16.342 -0.29 -0.01    +0.040 C  
DOCKED: ATOM     14  C   UNL     1      13.894  22.658  17.130 -0.26 +0.00    -0.040 A  
DOCKED: ATOM     15  C   UNL     1      15.145  23.162  17.510 -0.29 -0.00    +0.004 A  
DOCKED: ATOM     16  C   UNL     1      15.230  24.317  18.289 -0.16 -0.00    +0.000 A  
DOCKED: ATOM     17  C   UNL     1      14.070  24.965  18.713 -0.10 -0.00    +0.001 A  
DOCKED: ATOM     18  C   UNL     1      12.821  24.460  18.352 -0.12 -0.00    +0.008 A  
DOCKED: ATOM     19  C   UNL     1      12.727  23.315  17.553 -0.19 +0.00    -0.022 A  
DOCKED: ATOM     20  C   UNL     1      11.415  22.797  17.163 -0.24 -0.00    +0.012 C  
DOCKED: ENDBRANCH  10  11
DOCKED: TORSDOF 1
DOCKED: TER
DOCKED: ENDMDL
________________________________________________________________________________


    FINAL DOCKED STATE:
    ________________________


Run:   10 / 50
Time taken for this run:   0.000s

DOCKED: MODEL        10
DOCKED: USER    Run = 10
DOCKED: USER
DOCKED: USER    Estimated Free Energy of Binding    =  -5.06 kcal/mol  [=(1)+(2)+(3)-(4)]
DOCKED: USER
DOCKED: USER    (1) Final Intermolecular Energy     =  -5.36 kcal/mol
DOCKED: USER        vdW + Hbond + desolv Energy     =  -5.37 kcal/mol
DOCKED: USER        Electrostatic Energy            =  +0.01 kcal/mol
DOCKED: USER        Moving Ligand-Fixed Receptor    =  -5.36 kcal/mol
DOCKED: USER        Moving Ligand-Moving Receptor   =  +0.00 kcal/mol
DOCKED: USER    (2) Final Total Internal Energy     =  -0.45 kcal/mol
DOCKED: USER    (3) Torsional Free Energy           =  +0.30 kcal/mol
DOCKED: USER    (4) Unbound System's Energy         =  -0.45 kcal/mol
DOCKED: USER
DOCKED: USER
DOCKED: REMARK  Name = 
DOCKED: REMARK  2 active torsions:
DOCKED: REMARK  status: ('A' for Active; 'I' for Inactive)
DOCKED: REMARK    1  A    between atoms: C_8  and  C_9
DOCKED: REMARK    2  A    between atoms: C_10  and  C_11
DOCKED: REMARK                            x       y       z     vdW  Elec       q    Type
DOCKED: REMARK                         _______ _______ _______ _____ _____    ______ ____
DOCKED: USER                              x       y       z     vdW  Elec       q    Type
DOCKED: USER                           _______ _______ _______ _____ _____    ______ ____
DOCKED: ROOT
DOCKED: ATOM      1  C   UNL     1      13.057  21.368  16.649 -0.34 -0.01    +0.049 C  
DOCKED: ATOM      2  C   UNL     1      13.191  22.799  17.135 -0.29 +0.00    -0.004 C  
DOCKED: ATOM      3  C   UNL     1      11.985  23.711  17.012 -0.24 +0.00    +0.004 C  
DOCKED: ATOM      4  C   UNL     1      11.173  23.382  15.752 -0.36 +0.00    +0.012 C  
DOCKED: ATOM      5  C   UNL     1      10.815  21.890  15.655 -0.27 -0.00    +0.063 C  
DOCKED: ATOM      6  C   UNL     1      11.572  21.076  16.711 -0.25 -0.02    +0.181 C  
DOCKED: ATOM      7  O   UNL     1      11.064  19.748  16.586 -0.10 +0.07    -0.492 OA 
DOCKED: ATOM      8  C   UNL     1       9.690  20.119  16.555 -0.30 -0.01    +0.099 C  
DOCKED: ATOM      9  C   UNL     1       8.754  19.284  17.356 -0.21 -0.01    +0.086 C  
DOCKED: ATOM     10  C   UNL     1       9.473  21.340  16.031 -0.35 +0.00    -0.000 C  
DOCKED: ENDROOT
DOCKED: BRANCH  10  11
DOCKED: ATOM     11  C   UNL     1       8.285  22.145  16.109 -0.34 +0.01    -0.040 C  
DOCKED: ATOM     12  C   UNL     1       8.380  23.500  16.760 -0.27 -0.02    +0.040 C  
DOCKED: ATOM     13  C   UNL     1       7.045  23.983  17.344 -0.21 -0.03    +0.040 C  
DOCKED: ATOM     14  C   UNL     1       5.860  23.639  16.467 -0.23 +0.02    -0.040 A  
DOCKED: ATOM     15  C   UNL     1       4.690  24.411  16.495 -0.21 -0.00    +0.004 A  
DOCKED: ATOM     16  C   UNL     1       3.586  24.042  15.726 -0.22 -0.00    +0.000 A  
DOCKED: ATOM     17  C   UNL     1       3.632  22.892  14.939 -0.29 -0.00    +0.001 A  
DOCKED: ATOM     18  C   UNL     1       4.787  22.110  14.918 -0.33 -0.00    +0.008 A  
DOCKED: ATOM     19  C   UNL     1       5.905  22.484  15.670 -0.24 +0.01    -0.022 A  
DOCKED: ATOM     20  C   UNL     1       7.121  21.670  15.633 -0.30 -0.00    +0.012 C  
DOCKED: ENDBRANCH  10  11
DOCKED: TORSDOF 1
DOCKED: TER
DOCKED: ENDMDL
________________________________________________________________________________


    FINAL DOCKED STATE:
    ________________________


Run:   11 / 50
Time taken for this run:   0.000s

DOCKED: MODEL        11
DOCKED: USER    Run = 11
DOCKED: USER
DOCKED: USER    Estimated Free Energy of Binding    =  -4.86 kcal/mol  [=(1)+(2)+(3)-(4)]
DOCKED: USER
DOCKED: USER    (1) Final Intermolecular Energy     =  -5.16 kcal/mol
DOCKED: USER        vdW + Hbond + desolv Energy     =  -5.19 kcal/mol
DOCKED: USER        Electrostatic Energy            =  +0.03 kcal/mol
DOCKED: USER        Moving Ligand-Fixed Receptor    =  -5.16 kcal/mol
DOCKED: USER        Moving Ligand-Moving Receptor   =  +0.00 kcal/mol
DOCKED: USER    (2) Final Total Internal Energy     =  -0.56 kcal/mol
DOCKED: USER    (3) Torsional Free Energy           =  +0.30 kcal/mol
DOCKED: USER    (4) Unbound System's Energy         =  -0.56 kcal/mol
DOCKED: USER
DOCKED: USER
DOCKED: REMARK  Name = 
DOCKED: REMARK  2 active torsions:
DOCKED: REMARK  status: ('A' for Active; 'I' for Inactive)
DOCKED: REMARK    1  A    between atoms: C_8  and  C_9
DOCKED: REMARK    2  A    between atoms: C_10  and  C_11
DOCKED: REMARK                            x       y       z     vdW  Elec       q    Type
DOCKED: REMARK                         _______ _______ _______ _____ _____    ______ ____
DOCKED: USER                              x       y       z     vdW  Elec       q    Type
DOCKED: USER                           _______ _______ _______ _____ _____    ______ ____
DOCKED: ROOT
DOCKED: ATOM      1  C   UNL     1       7.475  18.884  16.463 -0.27 -0.00    +0.049 C  
DOCKED: ATOM      2  C   UNL     1       8.223  18.112  17.533 -0.21 +0.00    -0.004 C  
DOCKED: ATOM      3  C   UNL     1       9.676  18.468  17.788 -0.25 -0.00    +0.004 C  
DOCKED: ATOM      4  C   UNL     1      10.375  18.887  16.489 -0.35 -0.00    +0.012 C  
DOCKED: ATOM      5  C   UNL     1       9.607  19.984  15.733 -0.38 -0.01    +0.063 C  
DOCKED: ATOM      6  C   UNL     1       8.218  20.199  16.344 -0.25 -0.03    +0.181 C  
DOCKED: ATOM      7  O   UNL     1       7.670  21.307  15.632 -0.15 +0.13    -0.492 OA 
DOCKED: ATOM      8  C   UNL     1       8.828  22.129  15.726 -0.34 -0.02    +0.099 C  
DOCKED: ATOM      9  C   UNL     1       8.603  23.565  16.048 -0.27 -0.03    +0.086 C  
DOCKED: ATOM     10  C   UNL     1       9.979  21.434  15.787 -0.26 +0.00    -0.000 C  
DOCKED: ENDROOT
DOCKED: BRANCH  10  11
DOCKED: ATOM     11  C   UNL     1      11.282  21.900  16.176 -0.34 +0.00    -0.040 C  
DOCKED: ATOM     12  C   UNL     1      12.488  21.288  15.512 -0.47 -0.00    +0.040 C  
DOCKED: ATOM     13  C   UNL     1      13.754  21.363  16.377 -0.29 -0.01    +0.040 C  
DOCKED: ATOM     14  C   UNL     1      13.878  22.671  17.128 -0.25 +0.00    -0.040 A  
DOCKED: ATOM     15  C   UNL     1      15.131  23.173  17.507 -0.28 -0.00    +0.004 A  
DOCKED: ATOM     16  C   UNL     1      15.221  24.349  18.253 -0.16 -0.00    +0.000 A  
DOCKED: ATOM     17  C   UNL     1      14.064  25.021  18.645 -0.11 -0.00    +0.001 A  
DOCKED: ATOM     18  C   UNL     1      12.813  24.520  18.286 -0.13 -0.00    +0.008 A  
DOCKED: ATOM     19  C   UNL     1      12.715  23.353  17.519 -0.19 +0.00    -0.022 A  
DOCKED: ATOM     20  C   UNL     1      11.401  22.838  17.131 -0.24 -0.00    +0.012 C  
DOCKED: ENDBRANCH  10  11
DOCKED: TORSDOF 1
DOCKED: TER
DOCKED: ENDMDL
________________________________________________________________________________


    FINAL DOCKED STATE:
    ________________________


Run:   12 / 50
Time taken for this run:   0.000s

DOCKED: MODEL        12
DOCKED: USER    Run = 12
DOCKED: USER
DOCKED: USER    Estimated Free Energy of Binding    =  -5.06 kcal/mol  [=(1)+(2)+(3)-(4)]
DOCKED: USER
DOCKED: USER    (1) Final Intermolecular Energy     =  -5.36 kcal/mol
DOCKED: USER        vdW + Hbond + desolv Energy     =  -5.37 kcal/mol
DOCKED: USER        Electrostatic Energy            =  +0.01 kcal/mol
DOCKED: USER        Moving Ligand-Fixed Receptor    =  -5.36 kcal/mol
DOCKED: USER        Moving Ligand-Moving Receptor   =  +0.00 kcal/mol
DOCKED: USER    (2) Final Total Internal Energy     =  -0.44 kcal/mol
DOCKED: USER    (3) Torsional Free Energy           =  +0.30 kcal/mol
DOCKED: USER    (4) Unbound System's Energy         =  -0.44 kcal/mol
DOCKED: USER
DOCKED: USER
DOCKED: REMARK  Name = 
DOCKED: REMARK  2 active torsions:
DOCKED: REMARK  status: ('A' for Active; 'I' for Inactive)
DOCKED: REMARK    1  A    between atoms: C_8  and  C_9
DOCKED: REMARK    2  A    between atoms: C_10  and  C_11
DOCKED: REMARK                            x       y       z     vdW  Elec       q    Type
DOCKED: REMARK                         _______ _______ _______ _____ _____    ______ ____
DOCKED: USER                              x       y       z     vdW  Elec       q    Type
DOCKED: USER                           _______ _______ _______ _____ _____    ______ ____
DOCKED: ROOT
DOCKED: ATOM      1  C   UNL     1      13.029  21.403  16.622 -0.35 -0.01    +0.049 C  
DOCKED: ATOM      2  C   UNL     1      13.154  22.821  17.148 -0.29 +0.00    -0.004 C  
DOCKED: ATOM      3  C   UNL     1      11.944  23.730  17.047 -0.24 +0.00    +0.004 C  
DOCKED: ATOM      4  C   UNL     1      11.137  23.432  15.777 -0.36 +0.00    +0.012 C  
DOCKED: ATOM      5  C   UNL     1      10.786  21.941  15.637 -0.27 -0.00    +0.063 C  
DOCKED: ATOM      6  C   UNL     1      11.545  21.102  16.672 -0.25 -0.02    +0.181 C  
DOCKED: ATOM      7  O   UNL     1      11.045  19.776  16.509 -0.11 +0.07    -0.492 OA 
DOCKED: ATOM      8  C   UNL     1       9.669  20.140  16.485 -0.31 -0.01    +0.099 C  
DOCKED: ATOM      9  C   UNL     1       8.736  19.278  17.261 -0.22 -0.01    +0.086 C  
DOCKED: ATOM     10  C   UNL     1       9.447  21.374  15.995 -0.35 +0.00    -0.000 C  
DOCKED: ENDROOT
DOCKED: BRANCH  10  11
DOCKED: ATOM     11  C   UNL     1       8.254  22.170  16.093 -0.34 +0.01    -0.040 C  
DOCKED: ATOM     12  C   UNL     1       8.348  23.521  16.752 -0.27 -0.02    +0.040 C  
DOCKED: ATOM     13  C   UNL     1       7.017  23.991  17.355 -0.21 -0.03    +0.040 C  
DOCKED: ATOM     14  C   UNL     1       5.823  23.645  16.491 -0.23 +0.02    -0.040 A  
DOCKED: ATOM     15  C   UNL     1       4.649  24.408  16.539 -0.21 -0.00    +0.004 A  
DOCKED: ATOM     16  C   UNL     1       3.538  24.037  15.780 -0.21 -0.00    +0.000 A  
DOCKED: ATOM     17  C   UNL     1       3.582  22.892  14.985 -0.28 -0.00    +0.001 A  
DOCKED: ATOM     18  C   UNL     1       4.742  22.119  14.944 -0.33 -0.00    +0.008 A  
DOCKED: ATOM     19  C   UNL     1       5.867  22.496  15.685 -0.25 +0.01    -0.022 A  
DOCKED: ATOM     20  C   UNL     1       7.088  21.691  15.628 -0.30 -0.00    +0.012 C  
DOCKED: ENDBRANCH  10  11
DOCKED: TORSDOF 1
DOCKED: TER
DOCKED: ENDMDL
________________________________________________________________________________


    FINAL DOCKED STATE:
    ________________________


Run:   13 / 50
Time taken for this run:   0.000s

DOCKED: MODEL        13
DOCKED: USER    Run = 13
DOCKED: USER
DOCKED: USER    Estimated Free Energy of Binding    =  -4.86 kcal/mol  [=(1)+(2)+(3)-(4)]
DOCKED: USER
DOCKED: USER    (1) Final Intermolecular Energy     =  -5.16 kcal/mol
DOCKED: USER        vdW + Hbond + desolv Energy     =  -5.19 kcal/mol
DOCKED: USER        Electrostatic Energy            =  +0.03 kcal/mol
DOCKED: USER        Moving Ligand-Fixed Receptor    =  -5.16 kcal/mol
DOCKED: USER        Moving Ligand-Moving Receptor   =  +0.00 kcal/mol
DOCKED: USER    (2) Final Total Internal Energy     =  -0.56 kcal/mol
DOCKED: USER    (3) Torsional Free Energy           =  +0.30 kcal/mol
DOCKED: USER    (4) Unbound System's Energy         =  -0.56 kcal/mol
DOCKED: USER
DOCKED: USER
DOCKED: REMARK  Name = 
DOCKED: REMARK  2 active torsions:
DOCKED: REMARK  status: ('A' for Active; 'I' for Inactive)
DOCKED: REMARK    1  A    between atoms: C_8  and  C_9
DOCKED: REMARK    2  A    between atoms: C_10  and  C_11
DOCKED: REMARK                            x       y       z     vdW  Elec       q    Type
DOCKED: REMARK                         _______ _______ _______ _____ _____    ______ ____
DOCKED: USER                              x       y       z     vdW  Elec       q    Type
DOCKED: USER                           _______ _______ _______ _____ _____    ______ ____
DOCKED: ROOT
DOCKED: ATOM      1  C   UNL     1       7.481  18.899  16.452 -0.27 -0.00    +0.049 C  
DOCKED: ATOM      2  C   UNL     1       8.229  18.120  17.518 -0.21 +0.00    -0.004 C  
DOCKED: ATOM      3  C   UNL     1       9.683  18.472  17.772 -0.26 -0.00    +0.004 C  
DOCKED: ATOM      4  C   UNL     1      10.381  18.894  16.474 -0.35 -0.00    +0.012 C  
DOCKED: ATOM      5  C   UNL     1       9.615  19.997  15.724 -0.38 -0.01    +0.063 C  
DOCKED: ATOM      6  C   UNL     1       8.227  20.212  16.338 -0.25 -0.03    +0.181 C  
DOCKED: ATOM      7  O   UNL     1       7.681  21.325  15.632 -0.15 +0.13    -0.492 OA 
DOCKED: ATOM      8  C   UNL     1       8.841  22.144  15.728 -0.34 -0.02    +0.099 C  
DOCKED: ATOM      9  C   UNL     1       8.620  23.579  16.057 -0.27 -0.03    +0.086 C  
DOCKED: ATOM     10  C   UNL     1       9.991  21.446  15.785 -0.26 +0.00    -0.000 C  
DOCKED: ENDROOT
DOCKED: BRANCH  10  11
DOCKED: ATOM     11  C   UNL     1      11.295  21.907  16.174 -0.34 +0.00    -0.040 C  
DOCKED: ATOM     12  C   UNL     1      12.498  21.304  15.497 -0.47 -0.00    +0.040 C  
DOCKED: ATOM     13  C   UNL     1      13.768  21.368  16.357 -0.29 -0.01    +0.040 C  
DOCKED: ATOM     14  C   UNL     1      13.895  22.666  17.125 -0.25 +0.00    -0.040 A  
DOCKED: ATOM     15  C   UNL     1      15.149  23.163  17.505 -0.28 -0.00    +0.004 A  
DOCKED: ATOM     16  C   UNL     1      15.242  24.330  18.265 -0.16 -0.00    +0.000 A  
DOCKED: ATOM     17  C   UNL     1      14.087  24.997  18.671 -0.10 -0.00    +0.001 A  
DOCKED: ATOM     18  C   UNL     1      12.835  24.500  18.310 -0.13 -0.00    +0.008 A  
DOCKED: ATOM     19  C   UNL     1      12.733  23.343  17.530 -0.19 +0.00    -0.022 A  
DOCKED: ATOM     20  C   UNL     1      11.418  22.832  17.140 -0.24 -0.00    +0.012 C  
DOCKED: ENDBRANCH  10  11
DOCKED: TORSDOF 1
DOCKED: TER
DOCKED: ENDMDL
________________________________________________________________________________


    FINAL DOCKED STATE:
    ________________________


Run:   14 / 50
Time taken for this run:   0.000s

DOCKED: MODEL        14
DOCKED: USER    Run = 14
DOCKED: USER
DOCKED: USER    Estimated Free Energy of Binding    =  -4.87 kcal/mol  [=(1)+(2)+(3)-(4)]
DOCKED: USER
DOCKED: USER    (1) Final Intermolecular Energy     =  -5.17 kcal/mol
DOCKED: USER        vdW + Hbond + desolv Energy     =  -5.19 kcal/mol
DOCKED: USER        Electrostatic Energy            =  +0.03 kcal/mol
DOCKED: USER        Moving Ligand-Fixed Receptor    =  -5.17 kcal/mol
DOCKED: USER        Moving Ligand-Moving Receptor   =  +0.00 kcal/mol
DOCKED: USER    (2) Final Total Internal Energy     =  -0.55 kcal/mol
DOCKED: USER    (3) Torsional Free Energy           =  +0.30 kcal/mol
DOCKED: USER    (4) Unbound System's Energy         =  -0.55 kcal/mol
DOCKED: USER
DOCKED: USER
DOCKED: REMARK  Name = 
DOCKED: REMARK  2 active torsions:
DOCKED: REMARK  status: ('A' for Active; 'I' for Inactive)
DOCKED: REMARK    1  A    between atoms: C_8  and  C_9
DOCKED: REMARK    2  A    between atoms: C_10  and  C_11
DOCKED: REMARK                            x       y       z     vdW  Elec       q    Type
DOCKED: REMARK                         _______ _______ _______ _____ _____    ______ ____
DOCKED: USER                              x       y       z     vdW  Elec       q    Type
DOCKED: USER                           _______ _______ _______ _____ _____    ______ ____
DOCKED: ROOT
DOCKED: ATOM      1  C   UNL     1       7.480  18.873  16.452 -0.27 -0.00    +0.049 C  
DOCKED: ATOM      2  C   UNL     1       8.231  18.096  17.517 -0.21 +0.00    -0.004 C  
DOCKED: ATOM      3  C   UNL     1       9.683  18.456  17.773 -0.26 -0.00    +0.004 C  
DOCKED: ATOM      4  C   UNL     1      10.380  18.885  16.476 -0.35 -0.00    +0.012 C  
DOCKED: ATOM      5  C   UNL     1       9.609  19.985  15.728 -0.38 -0.01    +0.063 C  
DOCKED: ATOM      6  C   UNL     1       8.219  20.191  16.341 -0.25 -0.03    +0.181 C  
DOCKED: ATOM      7  O   UNL     1       7.667  21.302  15.637 -0.15 +0.13    -0.492 OA 
DOCKED: ATOM      8  C   UNL     1       8.823  22.127  15.736 -0.34 -0.02    +0.099 C  
DOCKED: ATOM      9  C   UNL     1       8.594  23.560  16.068 -0.27 -0.03    +0.086 C  
DOCKED: ATOM     10  C   UNL     1       9.976  21.435  15.792 -0.26 +0.00    -0.000 C  
DOCKED: ENDROOT
DOCKED: BRANCH  10  11
DOCKED: ATOM     11  C   UNL     1      11.277  21.903  16.183 -0.34 +0.00    -0.040 C  
DOCKED: ATOM     12  C   UNL     1      12.486  21.289  15.525 -0.47 -0.00    +0.040 C  
DOCKED: ATOM     13  C   UNL     1      13.749  21.367  16.394 -0.30 -0.01    +0.040 C  
DOCKED: ATOM     14  C   UNL     1      13.871  22.678  17.140 -0.25 +0.00    -0.040 A  
DOCKED: ATOM     15  C   UNL     1      15.122  23.181  17.521 -0.28 -0.00    +0.004 A  
DOCKED: ATOM     16  C   UNL     1      15.210  24.360  18.262 -0.16 -0.00    +0.000 A  
DOCKED: ATOM     17  C   UNL     1      14.052  25.034  18.648 -0.11 -0.00    +0.001 A  
DOCKED: ATOM     18  C   UNL     1      12.802  24.531  18.287 -0.13 -0.00    +0.008 A  
DOCKED: ATOM     19  C   UNL     1      12.706  23.361  17.525 -0.19 +0.00    -0.022 A  
DOCKED: ATOM     20  C   UNL     1      11.394  22.845  17.134 -0.24 -0.00    +0.012 C  
DOCKED: ENDBRANCH  10  11
DOCKED: TORSDOF 1
DOCKED: TER
DOCKED: ENDMDL
________________________________________________________________________________


    FINAL DOCKED STATE:
    ________________________


Run:   15 / 50
Time taken for this run:   0.000s

DOCKED: MODEL        15
DOCKED: USER    Run = 15
DOCKED: USER
DOCKED: USER    Estimated Free Energy of Binding    =  -4.85 kcal/mol  [=(1)+(2)+(3)-(4)]
DOCKED: USER
DOCKED: USER    (1) Final Intermolecular Energy     =  -5.15 kcal/mol
DOCKED: USER        vdW + Hbond + desolv Energy     =  -5.18 kcal/mol
DOCKED: USER        Electrostatic Energy            =  +0.03 kcal/mol
DOCKED: USER        Moving Ligand-Fixed Receptor    =  -5.15 kcal/mol
DOCKED: USER        Moving Ligand-Moving Receptor   =  +0.00 kcal/mol
DOCKED: USER    (2) Final Total Internal Energy     =  -0.56 kcal/mol
DOCKED: USER    (3) Torsional Free Energy           =  +0.30 kcal/mol
DOCKED: USER    (4) Unbound System's Energy         =  -0.56 kcal/mol
DOCKED: USER
DOCKED: USER
DOCKED: REMARK  Name = 
DOCKED: REMARK  2 active torsions:
DOCKED: REMARK  status: ('A' for Active; 'I' for Inactive)
DOCKED: REMARK    1  A    between atoms: C_8  and  C_9
DOCKED: REMARK    2  A    between atoms: C_10  and  C_11
DOCKED: REMARK                            x       y       z     vdW  Elec       q    Type
DOCKED: REMARK                         _______ _______ _______ _____ _____    ______ ____
DOCKED: USER                              x       y       z     vdW  Elec       q    Type
DOCKED: USER                           _______ _______ _______ _____ _____    ______ ____
DOCKED: ROOT
DOCKED: ATOM      1  C   UNL     1       7.483  18.893  16.481 -0.27 -0.00    +0.049 C  
DOCKED: ATOM      2  C   UNL     1       8.226  18.127  17.560 -0.21 +0.00    -0.004 C  
DOCKED: ATOM      3  C   UNL     1       9.678  18.483  17.817 -0.25 -0.00    +0.004 C  
DOCKED: ATOM      4  C   UNL     1      10.383  18.891  16.517 -0.34 -0.00    +0.012 C  
DOCKED: ATOM      5  C   UNL     1       9.620  19.985  15.752 -0.38 -0.01    +0.063 C  
DOCKED: ATOM      6  C   UNL     1       8.229  20.206  16.357 -0.24 -0.03    +0.181 C  
DOCKED: ATOM      7  O   UNL     1       7.685  21.310  15.635 -0.15 +0.13    -0.492 OA 
DOCKED: ATOM      8  C   UNL     1       8.844  22.131  15.728 -0.34 -0.02    +0.099 C  
DOCKED: ATOM      9  C   UNL     1       8.621  23.570  16.040 -0.27 -0.03    +0.086 C  
DOCKED: ATOM     10  C   UNL     1       9.994  21.434  15.798 -0.26 +0.00    -0.000 C  
DOCKED: ENDROOT
DOCKED: BRANCH  10  11
DOCKED: ATOM     11  C   UNL     1      11.296  21.901  16.188 -0.34 +0.00    -0.040 C  
DOCKED: ATOM     12  C   UNL     1      12.502  21.310  15.505 -0.47 -0.00    +0.040 C  
DOCKED: ATOM     13  C   UNL     1      13.773  21.376  16.363 -0.29 -0.01    +0.040 C  
DOCKED: ATOM     14  C   UNL     1      13.894  22.669  17.140 -0.26 +0.00    -0.040 A  
DOCKED: ATOM     15  C   UNL     1      15.145  23.171  17.521 -0.28 -0.00    +0.004 A  
DOCKED: ATOM     16  C   UNL     1      15.232  24.333  18.290 -0.16 -0.00    +0.000 A  
DOCKED: ATOM     17  C   UNL     1      14.074  24.990  18.702 -0.10 -0.00    +0.001 A  
DOCKED: ATOM     18  C   UNL     1      12.824  24.487  18.341 -0.13 -0.00    +0.008 A  
DOCKED: ATOM     19  C   UNL     1      12.728  23.336  17.552 -0.18 +0.00    -0.022 A  
DOCKED: ATOM     20  C   UNL     1      11.416  22.820  17.161 -0.24 -0.00    +0.012 C  
DOCKED: ENDBRANCH  10  11
DOCKED: TORSDOF 1
DOCKED: TER
DOCKED: ENDMDL
________________________________________________________________________________


    FINAL DOCKED STATE:
    ________________________


Run:   16 / 50
Time taken for this run:   0.000s

DOCKED: MODEL        16
DOCKED: USER    Run = 16
DOCKED: USER
DOCKED: USER    Estimated Free Energy of Binding    =  -4.87 kcal/mol  [=(1)+(2)+(3)-(4)]
DOCKED: USER
DOCKED: USER    (1) Final Intermolecular Energy     =  -5.17 kcal/mol
DOCKED: USER        vdW + Hbond + desolv Energy     =  -5.20 kcal/mol
DOCKED: USER        Electrostatic Energy            =  +0.03 kcal/mol
DOCKED: USER        Moving Ligand-Fixed Receptor    =  -5.17 kcal/mol
DOCKED: USER        Moving Ligand-Moving Receptor   =  +0.00 kcal/mol
DOCKED: USER    (2) Final Total Internal Energy     =  -0.56 kcal/mol
DOCKED: USER    (3) Torsional Free Energy           =  +0.30 kcal/mol
DOCKED: USER    (4) Unbound System's Energy         =  -0.56 kcal/mol
DOCKED: USER
DOCKED: USER
DOCKED: REMARK  Name = 
DOCKED: REMARK  2 active torsions:
DOCKED: REMARK  status: ('A' for Active; 'I' for Inactive)
DOCKED: REMARK    1  A    between atoms: C_8  and  C_9
DOCKED: REMARK    2  A    between atoms: C_10  and  C_11
DOCKED: REMARK                            x       y       z     vdW  Elec       q    Type
DOCKED: REMARK                         _______ _______ _______ _____ _____    ______ ____
DOCKED: USER                              x       y       z     vdW  Elec       q    Type
DOCKED: USER                           _______ _______ _______ _____ _____    ______ ____
DOCKED: ROOT
DOCKED: ATOM      1  C   UNL     1      14.280  22.497  17.143 -0.32 -0.00    +0.049 C  
DOCKED: ATOM      2  C   UNL     1      13.813  22.917  18.524 -0.18 +0.00    -0.004 C  
DOCKED: ATOM      3  C   UNL     1      12.320  23.013  18.775 -0.11 -0.00    +0.004 C  
DOCKED: ATOM      4  C   UNL     1      11.581  23.490  17.518 -0.20 -0.00    +0.012 C  
DOCKED: ATOM      5  C   UNL     1      11.932  22.655  16.275 -0.32 +0.00    +0.063 C  
DOCKED: ATOM      6  C   UNL     1      13.115  21.722  16.560 -0.31 -0.01    +0.181 C  
DOCKED: ATOM      7  O   UNL     1      13.257  20.935  15.378 -0.22 +0.07    -0.492 OA 
DOCKED: ATOM      8  C   UNL     1      11.875  20.617  15.249 -0.38 -0.01    +0.099 C  
DOCKED: ATOM      9  C   UNL     1      11.545  19.210  14.890 -0.32 -0.02    +0.086 C  
DOCKED: ATOM     10  C   UNL     1      11.055  21.563  15.744 -0.34 +0.00    -0.000 C  
DOCKED: ENDROOT
DOCKED: BRANCH  10  11
DOCKED: ATOM     11  C   UNL     1       9.655  21.457  16.048 -0.32 +0.01    -0.040 C  
DOCKED: ATOM     12  C   UNL     1       9.153  20.182  16.674 -0.30 -0.01    +0.040 C  
DOCKED: ATOM     13  C   UNL     1       7.668  19.915  16.389 -0.28 -0.01    +0.040 C  
DOCKED: ATOM     14  C   UNL     1       6.824  21.171  16.435 -0.21 +0.01    -0.040 A  
DOCKED: ATOM     15  C   UNL     1       5.460  21.115  16.750 -0.15 -0.00    +0.004 A  
DOCKED: ATOM     16  C   UNL     1       4.685  22.276  16.726 -0.13 -0.00    +0.000 A  
DOCKED: ATOM     17  C   UNL     1       5.259  23.495  16.368 -0.23 -0.00    +0.001 A  
DOCKED: ATOM     18  C   UNL     1       6.613  23.556  16.038 -0.19 -0.00    +0.008 A  
DOCKED: ATOM     19  C   UNL     1       7.401  22.401  16.080 -0.29 +0.01    -0.022 A  
DOCKED: ATOM     20  C   UNL     1       8.825  22.471  15.748 -0.39 -0.00    +0.012 C  
DOCKED: ENDBRANCH  10  11
DOCKED: TORSDOF 1
DOCKED: TER
DOCKED: ENDMDL
________________________________________________________________________________


    FINAL DOCKED STATE:
    ________________________


Run:   17 / 50
Time taken for this run:   0.000s

DOCKED: MODEL        17
DOCKED: USER    Run = 17
DOCKED: USER
DOCKED: USER    Estimated Free Energy of Binding    =  -4.66 kcal/mol  [=(1)+(2)+(3)-(4)]
DOCKED: USER
DOCKED: USER    (1) Final Intermolecular Energy     =  -4.96 kcal/mol
DOCKED: USER        vdW + Hbond + desolv Energy     =  -4.94 kcal/mol
DOCKED: USER        Electrostatic Energy            =  -0.02 kcal/mol
DOCKED: USER        Moving Ligand-Fixed Receptor    =  -4.96 kcal/mol
DOCKED: USER        Moving Ligand-Moving Receptor   =  +0.00 kcal/mol
DOCKED: USER    (2) Final Total Internal Energy     =  -0.62 kcal/mol
DOCKED: USER    (3) Torsional Free Energy           =  +0.30 kcal/mol
DOCKED: USER    (4) Unbound System's Energy         =  -0.62 kcal/mol
DOCKED: USER
DOCKED: USER
DOCKED: REMARK  Name = 
DOCKED: REMARK  2 active torsions:
DOCKED: REMARK  status: ('A' for Active; 'I' for Inactive)
DOCKED: REMARK    1  A    between atoms: C_8  and  C_9
DOCKED: REMARK    2  A    between atoms: C_10  and  C_11
DOCKED: REMARK                            x       y       z     vdW  Elec       q    Type
DOCKED: REMARK                         _______ _______ _______ _____ _____    ______ ____
DOCKED: USER                              x       y       z     vdW  Elec       q    Type
DOCKED: USER                           _______ _______ _______ _____ _____    ______ ____
DOCKED: ROOT
DOCKED: ATOM      1  C   UNL     1       7.101  21.360  15.916 -0.29 -0.01    +0.049 C  
DOCKED: ATOM      2  C   UNL     1       7.225  22.869  16.010 -0.32 +0.00    -0.004 C  
DOCKED: ATOM      3  C   UNL     1       8.501  23.446  16.594 -0.30 -0.00    +0.004 C  
DOCKED: ATOM      4  C   UNL     1       9.057  22.542  17.702 -0.14 -0.00    +0.012 C  
DOCKED: ATOM      5  C   UNL     1       9.207  21.080  17.249 -0.18 -0.01    +0.063 C  
DOCKED: ATOM      6  C   UNL     1       8.530  20.855  15.892 -0.27 -0.03    +0.181 C  
DOCKED: ATOM      7  O   UNL     1       8.843  19.508  15.543 -0.16 +0.07    -0.492 OA 
DOCKED: ATOM      8  C   UNL     1      10.230  19.595  15.850 -0.41 -0.01    +0.099 C  
DOCKED: ATOM      9  C   UNL     1      11.169  18.962  14.884 -0.46 -0.02    +0.086 C  
DOCKED: ATOM     10  C   UNL     1      10.512  20.481  16.824 -0.31 +0.00    -0.000 C  
DOCKED: ENDROOT
DOCKED: BRANCH  10  11
DOCKED: ATOM     11  C   UNL     1      11.788  21.037  17.180 -0.26 +0.01    -0.040 C  
DOCKED: ATOM     12  C   UNL     1      12.586  21.739  16.112 -0.41 -0.00    +0.040 C  
DOCKED: ATOM     13  C   UNL     1      14.097  21.730  16.385 -0.24 -0.01    +0.040 C  
DOCKED: ATOM     14  C   UNL     1      14.433  21.935  17.847 -0.30 +0.01    -0.040 A  
DOCKED: ATOM     15  C   UNL     1      15.657  22.495  18.237 -0.21 -0.00    +0.004 A  
DOCKED: ATOM     16  C   UNL     1      15.973  22.618  19.590 -0.13 -0.00    +0.000 A  
DOCKED: ATOM     17  C   UNL     1      15.083  22.166  20.563 -0.08 -0.00    +0.001 A  
DOCKED: ATOM     18  C   UNL     1      13.870  21.593  20.183 -0.09 -0.00    +0.008 A  
DOCKED: ATOM     19  C   UNL     1      13.535  21.486  18.828 -0.18 +0.00    -0.022 A  
DOCKED: ATOM     20  C   UNL     1      12.254  20.899  18.433 -0.18 -0.00    +0.012 C  
DOCKED: ENDBRANCH  10  11
DOCKED: TORSDOF 1
DOCKED: TER
DOCKED: ENDMDL
________________________________________________________________________________


    FINAL DOCKED STATE:
    ________________________


Run:   18 / 50
Time taken for this run:   0.000s

DOCKED: MODEL        18
DOCKED: USER    Run = 18
DOCKED: USER
DOCKED: USER    Estimated Free Energy of Binding    =  -5.07 kcal/mol  [=(1)+(2)+(3)-(4)]
DOCKED: USER
DOCKED: USER    (1) Final Intermolecular Energy     =  -5.37 kcal/mol
DOCKED: USER        vdW + Hbond + desolv Energy     =  -5.38 kcal/mol
DOCKED: USER        Electrostatic Energy            =  +0.01 kcal/mol
DOCKED: USER        Moving Ligand-Fixed Receptor    =  -5.37 kcal/mol
DOCKED: USER        Moving Ligand-Moving Receptor   =  +0.00 kcal/mol
DOCKED: USER    (2) Final Total Internal Energy     =  -0.39 kcal/mol
DOCKED: USER    (3) Torsional Free Energy           =  +0.30 kcal/mol
DOCKED: USER    (4) Unbound System's Energy         =  -0.39 kcal/mol
DOCKED: USER
DOCKED: USER
DOCKED: REMARK  Name = 
DOCKED: REMARK  2 active torsions:
DOCKED: REMARK  status: ('A' for Active; 'I' for Inactive)
DOCKED: REMARK    1  A    between atoms: C_8  and  C_9
DOCKED: REMARK    2  A    between atoms: C_10  and  C_11
DOCKED: REMARK                            x       y       z     vdW  Elec       q    Type
DOCKED: REMARK                         _______ _______ _______ _____ _____    ______ ____
DOCKED: USER                              x       y       z     vdW  Elec       q    Type
DOCKED: USER                           _______ _______ _______ _____ _____    ______ ____
DOCKED: ROOT
DOCKED: ATOM      1  C   UNL     1      13.088  21.482  16.653 -0.35 -0.01    +0.049 C  
DOCKED: ATOM      2  C   UNL     1      13.177  22.866  17.270 -0.28 +0.00    -0.004 C  
DOCKED: ATOM      3  C   UNL     1      11.952  23.758  17.202 -0.23 -0.00    +0.004 C  
DOCKED: ATOM      4  C   UNL     1      11.175  23.528  15.900 -0.35 +0.00    +0.012 C  
DOCKED: ATOM      5  C   UNL     1      10.854  22.043  15.660 -0.29 -0.00    +0.063 C  
DOCKED: ATOM      6  C   UNL     1      11.609  21.153  16.654 -0.25 -0.02    +0.181 C  
DOCKED: ATOM      7  O   UNL     1      11.136  19.832  16.398 -0.12 +0.07    -0.492 OA 
DOCKED: ATOM      8  C   UNL     1       9.754  20.174  16.370 -0.32 -0.01    +0.099 C  
DOCKED: ATOM      9  C   UNL     1       8.823  19.248  17.071 -0.25 -0.01    +0.086 C  
DOCKED: ATOM     10  C   UNL     1       9.519  21.433  15.954 -0.34 +0.00    -0.000 C  
DOCKED: ENDROOT
DOCKED: BRANCH  10  11
DOCKED: ATOM     11  C   UNL     1       8.310  22.200  16.078 -0.34 +0.01    -0.040 C  
DOCKED: ATOM     12  C   UNL     1       8.383  23.546  16.752 -0.27 -0.02    +0.040 C  
DOCKED: ATOM     13  C   UNL     1       7.051  23.979  17.380 -0.20 -0.03    +0.040 C  
DOCKED: ATOM     14  C   UNL     1       5.853  23.616  16.528 -0.23 +0.02    -0.040 A  
DOCKED: ATOM     15  C   UNL     1       4.663  24.352  16.601 -0.20 -0.00    +0.004 A  
DOCKED: ATOM     16  C   UNL     1       3.550  23.964  15.854 -0.20 -0.00    +0.000 A  
DOCKED: ATOM     17  C   UNL     1       3.608  22.830  15.046 -0.28 -0.00    +0.001 A  
DOCKED: ATOM     18  C   UNL     1       4.784  22.083  14.979 -0.33 -0.00    +0.008 A  
DOCKED: ATOM     19  C   UNL     1       5.911  22.477  15.709 -0.24 +0.01    -0.022 A  
DOCKED: ATOM     20  C   UNL     1       7.148  21.700  15.625 -0.30 -0.00    +0.012 C  
DOCKED: ENDBRANCH  10  11
DOCKED: TORSDOF 1
DOCKED: TER
DOCKED: ENDMDL
________________________________________________________________________________


    FINAL DOCKED STATE:
    ________________________


Run:   19 / 50
Time taken for this run:   0.000s

DOCKED: MODEL        19
DOCKED: USER    Run = 19
DOCKED: USER
DOCKED: USER    Estimated Free Energy of Binding    =  -4.87 kcal/mol  [=(1)+(2)+(3)-(4)]
DOCKED: USER
DOCKED: USER    (1) Final Intermolecular Energy     =  -5.17 kcal/mol
DOCKED: USER        vdW + Hbond + desolv Energy     =  -5.20 kcal/mol
DOCKED: USER        Electrostatic Energy            =  +0.03 kcal/mol
DOCKED: USER        Moving Ligand-Fixed Receptor    =  -5.17 kcal/mol
DOCKED: USER        Moving Ligand-Moving Receptor   =  +0.00 kcal/mol
DOCKED: USER    (2) Final Total Internal Energy     =  -0.55 kcal/mol
DOCKED: USER    (3) Torsional Free Energy           =  +0.30 kcal/mol
DOCKED: USER    (4) Unbound System's Energy         =  -0.55 kcal/mol
DOCKED: USER
DOCKED: USER
DOCKED: REMARK  Name = 
DOCKED: REMARK  2 active torsions:
DOCKED: REMARK  status: ('A' for Active; 'I' for Inactive)
DOCKED: REMARK    1  A    between atoms: C_8  and  C_9
DOCKED: REMARK    2  A    between atoms: C_10  and  C_11
DOCKED: REMARK                            x       y       z     vdW  Elec       q    Type
DOCKED: REMARK                         _______ _______ _______ _____ _____    ______ ____
DOCKED: USER                              x       y       z     vdW  Elec       q    Type
DOCKED: USER                           _______ _______ _______ _____ _____    ______ ____
DOCKED: ROOT
DOCKED: ATOM      1  C   UNL     1       7.509  18.963  16.460 -0.27 -0.00    +0.049 C  
DOCKED: ATOM      2  C   UNL     1       8.259  18.165  17.511 -0.21 +0.00    -0.004 C  
DOCKED: ATOM      3  C   UNL     1       9.717  18.502  17.757 -0.25 -0.00    +0.004 C  
DOCKED: ATOM      4  C   UNL     1      10.409  18.935  16.459 -0.36 -0.00    +0.012 C  
DOCKED: ATOM      5  C   UNL     1       9.646  20.053  15.729 -0.37 -0.01    +0.063 C  
DOCKED: ATOM      6  C   UNL     1       8.264  20.272  16.357 -0.24 -0.03    +0.181 C  
DOCKED: ATOM      7  O   UNL     1       7.721  21.398  15.669 -0.15 +0.14    -0.492 OA 
DOCKED: ATOM      8  C   UNL     1       8.889  22.206  15.766 -0.34 -0.02    +0.099 C  
DOCKED: ATOM      9  C   UNL     1       8.682  23.639  16.115 -0.27 -0.03    +0.086 C  
DOCKED: ATOM     10  C   UNL     1      10.033  21.498  15.804 -0.27 +0.00    -0.000 C  
DOCKED: ENDROOT
DOCKED: BRANCH  10  11
DOCKED: ATOM     11  C   UNL     1      11.344  21.944  16.188 -0.34 +0.00    -0.040 C  
DOCKED: ATOM     12  C   UNL     1      12.538  21.316  15.519 -0.47 -0.00    +0.040 C  
DOCKED: ATOM     13  C   UNL     1      13.809  21.370  16.378 -0.29 -0.01    +0.040 C  
DOCKED: ATOM     14  C   UNL     1      13.956  22.675  17.132 -0.25 +0.00    -0.040 A  
DOCKED: ATOM     15  C   UNL     1      15.217  23.157  17.506 -0.29 -0.00    +0.004 A  
DOCKED: ATOM     16  C   UNL     1      15.327  24.330  18.254 -0.16 -0.00    +0.000 A  
DOCKED: ATOM     17  C   UNL     1      14.183  25.019  18.652 -0.11 -0.00    +0.001 A  
DOCKED: ATOM     18  C   UNL     1      12.923  24.537  18.297 -0.13 -0.00    +0.008 A  
DOCKED: ATOM     19  C   UNL     1      12.804  23.373  17.529 -0.19 +0.00    -0.022 A  
DOCKED: ATOM     20  C   UNL     1      11.482  22.878  17.145 -0.24 -0.00    +0.012 C  
DOCKED: ENDBRANCH  10  11
DOCKED: TORSDOF 1
DOCKED: TER
DOCKED: ENDMDL
________________________________________________________________________________


    FINAL DOCKED STATE:
    ________________________


Run:   20 / 50
Time taken for this run:   0.000s

DOCKED: MODEL        20
DOCKED: USER    Run = 20
DOCKED: USER
DOCKED: USER    Estimated Free Energy of Binding    =  -4.87 kcal/mol  [=(1)+(2)+(3)-(4)]
DOCKED: USER
DOCKED: USER    (1) Final Intermolecular Energy     =  -5.17 kcal/mol
DOCKED: USER        vdW + Hbond + desolv Energy     =  -5.19 kcal/mol
DOCKED: USER        Electrostatic Energy            =  +0.03 kcal/mol
DOCKED: USER        Moving Ligand-Fixed Receptor    =  -5.17 kcal/mol
DOCKED: USER        Moving Ligand-Moving Receptor   =  +0.00 kcal/mol
DOCKED: USER    (2) Final Total Internal Energy     =  -0.55 kcal/mol
DOCKED: USER    (3) Torsional Free Energy           =  +0.30 kcal/mol
DOCKED: USER    (4) Unbound System's Energy         =  -0.55 kcal/mol
DOCKED: USER
DOCKED: USER
DOCKED: REMARK  Name = 
DOCKED: REMARK  2 active torsions:
DOCKED: REMARK  status: ('A' for Active; 'I' for Inactive)
DOCKED: REMARK    1  A    between atoms: C_8  and  C_9
DOCKED: REMARK    2  A    between atoms: C_10  and  C_11
DOCKED: REMARK                            x       y       z     vdW  Elec       q    Type
DOCKED: REMARK                         _______ _______ _______ _____ _____    ______ ____
DOCKED: USER                              x       y       z     vdW  Elec       q    Type
DOCKED: USER                           _______ _______ _______ _____ _____    ______ ____
DOCKED: ROOT
DOCKED: ATOM      1  C   UNL     1       7.455  18.905  16.503 -0.27 -0.00    +0.049 C  
DOCKED: ATOM      2  C   UNL     1       8.227  18.096  17.528 -0.21 +0.00    -0.004 C  
DOCKED: ATOM      3  C   UNL     1       9.686  18.442  17.759 -0.26 -0.00    +0.004 C  
DOCKED: ATOM      4  C   UNL     1      10.355  18.903  16.458 -0.35 -0.00    +0.012 C  
DOCKED: ATOM      5  C   UNL     1       9.571  20.026  15.758 -0.38 -0.01    +0.063 C  
DOCKED: ATOM      6  C   UNL     1       8.198  20.222  16.410 -0.24 -0.03    +0.181 C  
DOCKED: ATOM      7  O   UNL     1       7.635  21.354  15.749 -0.14 +0.13    -0.492 OA 
DOCKED: ATOM      8  C   UNL     1       8.797  22.171  15.843 -0.34 -0.02    +0.099 C  
DOCKED: ATOM      9  C   UNL     1       8.584  23.596  16.218 -0.27 -0.03    +0.086 C  
DOCKED: ATOM     10  C   UNL     1       9.948  21.473  15.852 -0.29 +0.00    -0.000 C  
DOCKED: ENDROOT
DOCKED: BRANCH  10  11
DOCKED: ATOM     11  C   UNL     1      11.261  21.923  16.225 -0.34 +0.00    -0.040 C  
DOCKED: ATOM     12  C   UNL     1      12.450  21.312  15.532 -0.47 -0.00    +0.040 C  
DOCKED: ATOM     13  C   UNL     1      13.732  21.365  16.375 -0.30 -0.01    +0.040 C  
DOCKED: ATOM     14  C   UNL     1      13.879  22.661  17.142 -0.26 +0.00    -0.040 A  
DOCKED: ATOM     15  C   UNL     1      15.142  23.149  17.506 -0.29 -0.00    +0.004 A  
DOCKED: ATOM     16  C   UNL     1      15.254  24.314  18.266 -0.16 -0.00    +0.000 A  
DOCKED: ATOM     17  C   UNL     1      14.109  24.989  18.687 -0.10 -0.00    +0.001 A  
DOCKED: ATOM     18  C   UNL     1      12.849  24.502  18.343 -0.13 -0.00    +0.008 A  
DOCKED: ATOM     19  C   UNL     1      12.728  23.347  17.563 -0.18 +0.00    -0.022 A  
DOCKED: ATOM     20  C   UNL     1      11.404  22.847  17.190 -0.23 -0.00    +0.012 C  
DOCKED: ENDBRANCH  10  11
DOCKED: TORSDOF 1
DOCKED: TER
DOCKED: ENDMDL
________________________________________________________________________________


    FINAL DOCKED STATE:
    ________________________


Run:   21 / 50
Time taken for this run:   0.000s

DOCKED: MODEL        21
DOCKED: USER    Run = 21
DOCKED: USER
DOCKED: USER    Estimated Free Energy of Binding    =  -5.05 kcal/mol  [=(1)+(2)+(3)-(4)]
DOCKED: USER
DOCKED: USER    (1) Final Intermolecular Energy     =  -5.35 kcal/mol
DOCKED: USER        vdW + Hbond + desolv Energy     =  -5.36 kcal/mol
DOCKED: USER        Electrostatic Energy            =  +0.01 kcal/mol
DOCKED: USER        Moving Ligand-Fixed Receptor    =  -5.35 kcal/mol
DOCKED: USER        Moving Ligand-Moving Receptor   =  +0.00 kcal/mol
DOCKED: USER    (2) Final Total Internal Energy     =  -0.46 kcal/mol
DOCKED: USER    (3) Torsional Free Energy           =  +0.30 kcal/mol
DOCKED: USER    (4) Unbound System's Energy         =  -0.46 kcal/mol
DOCKED: USER
DOCKED: USER
DOCKED: REMARK  Name = 
DOCKED: REMARK  2 active torsions:
DOCKED: REMARK  status: ('A' for Active; 'I' for Inactive)
DOCKED: REMARK    1  A    between atoms: C_8  and  C_9
DOCKED: REMARK    2  A    between atoms: C_10  and  C_11
DOCKED: REMARK                            x       y       z     vdW  Elec       q    Type
DOCKED: REMARK                         _______ _______ _______ _____ _____    ______ ____
DOCKED: USER                              x       y       z     vdW  Elec       q    Type
DOCKED: USER                           _______ _______ _______ _____ _____    ______ ____
DOCKED: ROOT
DOCKED: ATOM      1  C   UNL     1      13.058  21.372  16.634 -0.34 -0.01    +0.049 C  
DOCKED: ATOM      2  C   UNL     1      13.195  22.815  17.084 -0.28 +0.00    -0.004 C  
DOCKED: ATOM      3  C   UNL     1      11.989  23.724  16.945 -0.24 +0.00    +0.004 C  
DOCKED: ATOM      4  C   UNL     1      11.170  23.365  15.698 -0.37 +0.00    +0.012 C  
DOCKED: ATOM      5  C   UNL     1      10.811  21.871  15.639 -0.27 -0.00    +0.063 C  
DOCKED: ATOM      6  C   UNL     1      11.573  21.083  16.710 -0.25 -0.02    +0.181 C  
DOCKED: ATOM      7  O   UNL     1      11.064  19.753  16.621 -0.10 +0.07    -0.492 OA 
DOCKED: ATOM      8  C   UNL     1       9.690  20.124  16.588 -0.30 -0.01    +0.099 C  
DOCKED: ATOM      9  C   UNL     1       8.758  19.309  17.415 -0.20 -0.01    +0.086 C  
DOCKED: ATOM     10  C   UNL     1       9.470  21.332  16.035 -0.35 +0.00    -0.000 C  
DOCKED: ENDROOT
DOCKED: BRANCH  10  11
DOCKED: ATOM     11  C   UNL     1       8.284  22.139  16.100 -0.34 +0.01    -0.040 C  
DOCKED: ATOM     12  C   UNL     1       8.379  23.504  16.731 -0.27 -0.02    +0.040 C  
DOCKED: ATOM     13  C   UNL     1       7.044  23.997  17.306 -0.21 -0.03    +0.040 C  
DOCKED: ATOM     14  C   UNL     1       5.859  23.642  16.433 -0.23 +0.02    -0.040 A  
DOCKED: ATOM     15  C   UNL     1       4.691  24.415  16.448 -0.22 -0.00    +0.004 A  
DOCKED: ATOM     16  C   UNL     1       3.587  24.035  15.683 -0.22 -0.00    +0.000 A  
DOCKED: ATOM     17  C   UNL     1       3.632  22.874  14.915 -0.30 -0.00    +0.001 A  
DOCKED: ATOM     18  C   UNL     1       4.786  22.090  14.906 -0.33 -0.00    +0.008 A  
DOCKED: ATOM     19  C   UNL     1       5.905  22.475  15.654 -0.24 +0.01    -0.022 A  
DOCKED: ATOM     20  C   UNL     1       7.119  21.659  15.630 -0.30 -0.00    +0.012 C  
DOCKED: ENDBRANCH  10  11
DOCKED: TORSDOF 1
DOCKED: TER
DOCKED: ENDMDL
________________________________________________________________________________


    FINAL DOCKED STATE:
    ________________________


Run:   22 / 50
Time taken for this run:   0.000s

DOCKED: MODEL        22
DOCKED: USER    Run = 22
DOCKED: USER
DOCKED: USER    Estimated Free Energy of Binding    =  -5.06 kcal/mol  [=(1)+(2)+(3)-(4)]
DOCKED: USER
DOCKED: USER    (1) Final Intermolecular Energy     =  -5.36 kcal/mol
DOCKED: USER        vdW + Hbond + desolv Energy     =  -5.37 kcal/mol
DOCKED: USER        Electrostatic Energy            =  +0.01 kcal/mol
DOCKED: USER        Moving Ligand-Fixed Receptor    =  -5.36 kcal/mol
DOCKED: USER        Moving Ligand-Moving Receptor   =  +0.00 kcal/mol
DOCKED: USER    (2) Final Total Internal Energy     =  -0.44 kcal/mol
DOCKED: USER    (3) Torsional Free Energy           =  +0.30 kcal/mol
DOCKED: USER    (4) Unbound System's Energy         =  -0.44 kcal/mol
DOCKED: USER
DOCKED: USER
DOCKED: REMARK  Name = 
DOCKED: REMARK  2 active torsions:
DOCKED: REMARK  status: ('A' for Active; 'I' for Inactive)
DOCKED: REMARK    1  A    between atoms: C_8  and  C_9
DOCKED: REMARK    2  A    between atoms: C_10  and  C_11
DOCKED: REMARK                            x       y       z     vdW  Elec       q    Type
DOCKED: REMARK                         _______ _______ _______ _____ _____    ______ ____
DOCKED: USER                              x       y       z     vdW  Elec       q    Type
DOCKED: USER                           _______ _______ _______ _____ _____    ______ ____
DOCKED: ROOT
DOCKED: ATOM      1  C   UNL     1      13.050  21.409  16.636 -0.35 -0.01    +0.049 C  
DOCKED: ATOM      2  C   UNL     1      13.175  22.834  17.141 -0.29 +0.00    -0.004 C  
DOCKED: ATOM      3  C   UNL     1      11.964  23.741  17.027 -0.24 +0.00    +0.004 C  
DOCKED: ATOM      4  C   UNL     1      11.157  23.425  15.762 -0.36 +0.00    +0.012 C  
DOCKED: ATOM      5  C   UNL     1      10.807  21.932  15.643 -0.28 -0.00    +0.063 C  
DOCKED: ATOM      6  C   UNL     1      11.566  21.108  16.690 -0.25 -0.02    +0.181 C  
DOCKED: ATOM      7  O   UNL     1      11.066  19.779  16.546 -0.11 +0.07    -0.492 OA 
DOCKED: ATOM      8  C   UNL     1       9.690  20.144  16.517 -0.30 -0.01    +0.099 C  
DOCKED: ATOM      9  C   UNL     1       8.757  19.292  17.305 -0.22 -0.01    +0.086 C  
DOCKED: ATOM     10  C   UNL     1       9.467  21.370  16.009 -0.35 +0.00    -0.000 C  
DOCKED: ENDROOT
DOCKED: BRANCH  10  11
DOCKED: ATOM     11  C   UNL     1       8.275  22.167  16.095 -0.34 +0.01    -0.040 C  
DOCKED: ATOM     12  C   UNL     1       8.366  23.523  16.745 -0.27 -0.02    +0.040 C  
DOCKED: ATOM     13  C   UNL     1       7.031  23.998  17.338 -0.21 -0.03    +0.040 C  
DOCKED: ATOM     14  C   UNL     1       5.843  23.647  16.469 -0.23 +0.02    -0.040 A  
DOCKED: ATOM     15  C   UNL     1       4.669  24.411  16.505 -0.21 -0.00    +0.004 A  
DOCKED: ATOM     16  C   UNL     1       3.562  24.035  15.742 -0.21 -0.00    +0.000 A  
DOCKED: ATOM     17  C   UNL     1       3.609  22.885  14.956 -0.29 -0.00    +0.001 A  
DOCKED: ATOM     18  C   UNL     1       4.769  22.110  14.927 -0.33 -0.00    +0.008 A  
DOCKED: ATOM     19  C   UNL     1       5.890  22.492  15.671 -0.24 +0.01    -0.022 A  
DOCKED: ATOM     20  C   UNL     1       7.111  21.686  15.627 -0.30 -0.00    +0.012 C  
DOCKED: ENDBRANCH  10  11
DOCKED: TORSDOF 1
DOCKED: TER
DOCKED: ENDMDL
________________________________________________________________________________


    FINAL DOCKED STATE:
    ________________________


Run:   23 / 50
Time taken for this run:   0.000s

DOCKED: MODEL        23
DOCKED: USER    Run = 23
DOCKED: USER
DOCKED: USER    Estimated Free Energy of Binding    =  -4.86 kcal/mol  [=(1)+(2)+(3)-(4)]
DOCKED: USER
DOCKED: USER    (1) Final Intermolecular Energy     =  -5.16 kcal/mol
DOCKED: USER        vdW + Hbond + desolv Energy     =  -5.18 kcal/mol
DOCKED: USER        Electrostatic Energy            =  +0.02 kcal/mol
DOCKED: USER        Moving Ligand-Fixed Receptor    =  -5.16 kcal/mol
DOCKED: USER        Moving Ligand-Moving Receptor   =  +0.00 kcal/mol
DOCKED: USER    (2) Final Total Internal Energy     =  -0.57 kcal/mol
DOCKED: USER    (3) Torsional Free Energy           =  +0.30 kcal/mol
DOCKED: USER    (4) Unbound System's Energy         =  -0.57 kcal/mol
DOCKED: USER
DOCKED: USER
DOCKED: REMARK  Name = 
DOCKED: REMARK  2 active torsions:
DOCKED: REMARK  status: ('A' for Active; 'I' for Inactive)
DOCKED: REMARK    1  A    between atoms: C_8  and  C_9
DOCKED: REMARK    2  A    between atoms: C_10  and  C_11
DOCKED: REMARK                            x       y       z     vdW  Elec       q    Type
DOCKED: REMARK                         _______ _______ _______ _____ _____    ______ ____
DOCKED: USER                              x       y       z     vdW  Elec       q    Type
DOCKED: USER                           _______ _______ _______ _____ _____    ______ ____
DOCKED: ROOT
DOCKED: ATOM      1  C   UNL     1      14.222  22.530  17.161 -0.32 -0.00    +0.049 C  
DOCKED: ATOM      2  C   UNL     1      13.747  22.940  18.542 -0.18 +0.00    -0.004 C  
DOCKED: ATOM      3  C   UNL     1      12.252  23.018  18.789 -0.11 -0.00    +0.004 C  
DOCKED: ATOM      4  C   UNL     1      11.511  23.489  17.532 -0.20 -0.00    +0.012 C  
DOCKED: ATOM      5  C   UNL     1      11.875  22.661  16.288 -0.31 +0.00    +0.063 C  
DOCKED: ATOM      6  C   UNL     1      13.069  21.743  16.573 -0.31 -0.01    +0.181 C  
DOCKED: ATOM      7  O   UNL     1      13.222  20.960  15.390 -0.23 +0.06    -0.492 OA 
DOCKED: ATOM      8  C   UNL     1      11.844  20.626  15.256 -0.37 -0.01    +0.099 C  
DOCKED: ATOM      9  C   UNL     1      11.532  19.216  14.893 -0.32 -0.02    +0.086 C  
DOCKED: ATOM     10  C   UNL     1      11.012  21.561  15.752 -0.34 +0.00    -0.000 C  
DOCKED: ENDROOT
DOCKED: BRANCH  10  11
DOCKED: ATOM     11  C   UNL     1       9.613  21.438  16.053 -0.32 +0.01    -0.040 C  
DOCKED: ATOM     12  C   UNL     1       9.127  20.163  16.693 -0.29 -0.01    +0.040 C  
DOCKED: ATOM     13  C   UNL     1       7.648  19.870  16.406 -0.27 -0.01    +0.040 C  
DOCKED: ATOM     14  C   UNL     1       6.785  21.113  16.433 -0.21 +0.01    -0.040 A  
DOCKED: ATOM     15  C   UNL     1       5.421  21.041  16.745 -0.15 -0.00    +0.004 A  
DOCKED: ATOM     16  C   UNL     1       4.629  22.190  16.704 -0.13 -0.00    +0.000 A  
DOCKED: ATOM     17  C   UNL     1       5.185  23.413  16.334 -0.23 -0.00    +0.001 A  
DOCKED: ATOM     18  C   UNL     1       6.539  23.490  16.007 -0.20 -0.00    +0.008 A  
DOCKED: ATOM     19  C   UNL     1       7.345  22.347  16.066 -0.29 +0.01    -0.022 A  
DOCKED: ATOM     20  C   UNL     1       8.768  22.435  15.738 -0.39 -0.00    +0.012 C  
DOCKED: ENDBRANCH  10  11
DOCKED: TORSDOF 1
DOCKED: TER
DOCKED: ENDMDL
________________________________________________________________________________


    FINAL DOCKED STATE:
    ________________________


Run:   24 / 50
Time taken for this run:   0.000s

DOCKED: MODEL        24
DOCKED: USER    Run = 24
DOCKED: USER
DOCKED: USER    Estimated Free Energy of Binding    =  -5.07 kcal/mol  [=(1)+(2)+(3)-(4)]
DOCKED: USER
DOCKED: USER    (1) Final Intermolecular Energy     =  -5.37 kcal/mol
DOCKED: USER        vdW + Hbond + desolv Energy     =  -5.38 kcal/mol
DOCKED: USER        Electrostatic Energy            =  +0.01 kcal/mol
DOCKED: USER        Moving Ligand-Fixed Receptor    =  -5.37 kcal/mol
DOCKED: USER        Moving Ligand-Moving Receptor   =  +0.00 kcal/mol
DOCKED: USER    (2) Final Total Internal Energy     =  -0.44 kcal/mol
DOCKED: USER    (3) Torsional Free Energy           =  +0.30 kcal/mol
DOCKED: USER    (4) Unbound System's Energy         =  -0.44 kcal/mol
DOCKED: USER
DOCKED: USER
DOCKED: REMARK  Name = 
DOCKED: REMARK  2 active torsions:
DOCKED: REMARK  status: ('A' for Active; 'I' for Inactive)
DOCKED: REMARK    1  A    between atoms: C_8  and  C_9
DOCKED: REMARK    2  A    between atoms: C_10  and  C_11
DOCKED: REMARK                            x       y       z     vdW  Elec       q    Type
DOCKED: REMARK                         _______ _______ _______ _____ _____    ______ ____
DOCKED: USER                              x       y       z     vdW  Elec       q    Type
DOCKED: USER                           _______ _______ _______ _____ _____    ______ ____
DOCKED: ROOT
DOCKED: ATOM      1  C   UNL     1      13.051  21.383  16.642 -0.34 -0.01    +0.049 C  
DOCKED: ATOM      2  C   UNL     1      13.183  22.812  17.136 -0.29 +0.00    -0.004 C  
DOCKED: ATOM      3  C   UNL     1      11.976  23.724  17.013 -0.24 +0.00    +0.004 C  
DOCKED: ATOM      4  C   UNL     1      11.170  23.401  15.749 -0.36 +0.00    +0.012 C  
DOCKED: ATOM      5  C   UNL     1      10.812  21.909  15.643 -0.27 -0.00    +0.063 C  
DOCKED: ATOM      6  C   UNL     1      11.566  21.090  16.697 -0.25 -0.02    +0.181 C  
DOCKED: ATOM      7  O   UNL     1      11.060  19.763  16.564 -0.11 +0.07    -0.492 OA 
DOCKED: ATOM      8  C   UNL     1       9.686  20.133  16.530 -0.30 -0.01    +0.099 C  
DOCKED: ATOM      9  C   UNL     1       8.748  19.293  17.325 -0.22 -0.01    +0.086 C  
DOCKED: ATOM     10  C   UNL     1       9.470  21.357  16.012 -0.35 +0.00    -0.000 C  
DOCKED: ENDROOT
DOCKED: BRANCH  10  11
DOCKED: ATOM     11  C   UNL     1       8.281  22.160  16.089 -0.34 +0.01    -0.040 C  
DOCKED: ATOM     12  C   UNL     1       8.378  23.522  16.726 -0.27 -0.02    +0.040 C  
DOCKED: ATOM     13  C   UNL     1       7.046  24.009  17.314 -0.21 -0.03    +0.040 C  
DOCKED: ATOM     14  C   UNL     1       5.856  23.655  16.449 -0.23 +0.02    -0.040 A  
DOCKED: ATOM     15  C   UNL     1       4.685  24.424  16.477 -0.22 -0.00    +0.004 A  
DOCKED: ATOM     16  C   UNL     1       3.577  24.046  15.719 -0.22 -0.00    +0.000 A  
DOCKED: ATOM     17  C   UNL     1       3.619  22.888  14.944 -0.29 -0.00    +0.001 A  
DOCKED: ATOM     18  C   UNL     1       4.774  22.108  14.923 -0.33 -0.00    +0.008 A  
DOCKED: ATOM     19  C   UNL     1       5.898  22.491  15.663 -0.24 +0.01    -0.022 A  
DOCKED: ATOM     20  C   UNL     1       7.114  21.679  15.627 -0.30 -0.00    +0.012 C  
DOCKED: ENDBRANCH  10  11
DOCKED: TORSDOF 1
DOCKED: TER
DOCKED: ENDMDL
________________________________________________________________________________


    FINAL DOCKED STATE:
    ________________________


Run:   25 / 50
Time taken for this run:   0.000s

DOCKED: MODEL        25
DOCKED: USER    Run = 25
DOCKED: USER
DOCKED: USER    Estimated Free Energy of Binding    =  -4.85 kcal/mol  [=(1)+(2)+(3)-(4)]
DOCKED: USER
DOCKED: USER    (1) Final Intermolecular Energy     =  -5.15 kcal/mol
DOCKED: USER        vdW + Hbond + desolv Energy     =  -5.18 kcal/mol
DOCKED: USER        Electrostatic Energy            =  +0.03 kcal/mol
DOCKED: USER        Moving Ligand-Fixed Receptor    =  -5.15 kcal/mol
DOCKED: USER        Moving Ligand-Moving Receptor   =  +0.00 kcal/mol
DOCKED: USER    (2) Final Total Internal Energy     =  -0.56 kcal/mol
DOCKED: USER    (3) Torsional Free Energy           =  +0.30 kcal/mol
DOCKED: USER    (4) Unbound System's Energy         =  -0.56 kcal/mol
DOCKED: USER
DOCKED: USER
DOCKED: REMARK  Name = 
DOCKED: REMARK  2 active torsions:
DOCKED: REMARK  status: ('A' for Active; 'I' for Inactive)
DOCKED: REMARK    1  A    between atoms: C_8  and  C_9
DOCKED: REMARK    2  A    between atoms: C_10  and  C_11
DOCKED: REMARK                            x       y       z     vdW  Elec       q    Type
DOCKED: REMARK                         _______ _______ _______ _____ _____    ______ ____
DOCKED: USER                              x       y       z     vdW  Elec       q    Type
DOCKED: USER                           _______ _______ _______ _____ _____    ______ ____
DOCKED: ROOT
DOCKED: ATOM      1  C   UNL     1       7.484  18.866  16.480 -0.27 -0.00    +0.049 C  
DOCKED: ATOM      2  C   UNL     1       8.236  18.093  17.548 -0.21 +0.00    -0.004 C  
DOCKED: ATOM      3  C   UNL     1       9.688  18.451  17.799 -0.25 -0.00    +0.004 C  
DOCKED: ATOM      4  C   UNL     1      10.384  18.873  16.499 -0.34 -0.00    +0.012 C  
DOCKED: ATOM      5  C   UNL     1       9.612  19.970  15.747 -0.38 -0.01    +0.063 C  
DOCKED: ATOM      6  C   UNL     1       8.224  20.182  16.362 -0.24 -0.03    +0.181 C  
DOCKED: ATOM      7  O   UNL     1       7.673  21.290  15.653 -0.15 +0.13    -0.492 OA 
DOCKED: ATOM      8  C   UNL     1       8.830  22.114  15.745 -0.34 -0.02    +0.099 C  
DOCKED: ATOM      9  C   UNL     1       8.604  23.549  16.071 -0.28 -0.03    +0.086 C  
DOCKED: ATOM     10  C   UNL     1       9.982  21.421  15.803 -0.26 +0.00    -0.000 C  
DOCKED: ENDROOT
DOCKED: BRANCH  10  11
DOCKED: ATOM     11  C   UNL     1      11.285  21.888  16.189 -0.34 +0.00    -0.040 C  
DOCKED: ATOM     12  C   UNL     1      12.489  21.306  15.495 -0.47 -0.00    +0.040 C  
DOCKED: ATOM     13  C   UNL     1      13.765  21.369  16.346 -0.29 -0.01    +0.040 C  
DOCKED: ATOM     14  C   UNL     1      13.886  22.657  17.132 -0.26 +0.00    -0.040 A  
DOCKED: ATOM     15  C   UNL     1      15.138  23.160  17.510 -0.29 -0.00    +0.004 A  
DOCKED: ATOM     16  C   UNL     1      15.225  24.316  18.287 -0.16 -0.00    +0.000 A  
DOCKED: ATOM     17  C   UNL     1      14.067  24.966  18.711 -0.10 -0.00    +0.001 A  
DOCKED: ATOM     18  C   UNL     1      12.817  24.463  18.353 -0.12 -0.00    +0.008 A  
DOCKED: ATOM     19  C   UNL     1      12.720  23.317  17.556 -0.19 +0.00    -0.022 A  
DOCKED: ATOM     20  C   UNL     1      11.407  22.800  17.168 -0.24 -0.00    +0.012 C  
DOCKED: ENDBRANCH  10  11
DOCKED: TORSDOF 1
DOCKED: TER
DOCKED: ENDMDL
________________________________________________________________________________


    FINAL DOCKED STATE:
    ________________________


Run:   26 / 50
Time taken for this run:   0.000s

DOCKED: MODEL        26
DOCKED: USER    Run = 26
DOCKED: USER
DOCKED: USER    Estimated Free Energy of Binding    =  -5.06 kcal/mol  [=(1)+(2)+(3)-(4)]
DOCKED: USER
DOCKED: USER    (1) Final Intermolecular Energy     =  -5.36 kcal/mol
DOCKED: USER        vdW + Hbond + desolv Energy     =  -5.37 kcal/mol
DOCKED: USER        Electrostatic Energy            =  +0.01 kcal/mol
DOCKED: USER        Moving Ligand-Fixed Receptor    =  -5.36 kcal/mol
DOCKED: USER        Moving Ligand-Moving Receptor   =  +0.00 kcal/mol
DOCKED: USER    (2) Final Total Internal Energy     =  -0.45 kcal/mol
DOCKED: USER    (3) Torsional Free Energy           =  +0.30 kcal/mol
DOCKED: USER    (4) Unbound System's Energy         =  -0.45 kcal/mol
DOCKED: USER
DOCKED: USER
DOCKED: REMARK  Name = 
DOCKED: REMARK  2 active torsions:
DOCKED: REMARK  status: ('A' for Active; 'I' for Inactive)
DOCKED: REMARK    1  A    between atoms: C_8  and  C_9
DOCKED: REMARK    2  A    between atoms: C_10  and  C_11
DOCKED: REMARK                            x       y       z     vdW  Elec       q    Type
DOCKED: REMARK                         _______ _______ _______ _____ _____    ______ ____
DOCKED: USER                              x       y       z     vdW  Elec       q    Type
DOCKED: USER                           _______ _______ _______ _____ _____    ______ ____
DOCKED: ROOT
DOCKED: ATOM      1  C   UNL     1      13.057  21.365  16.643 -0.34 -0.01    +0.049 C  
DOCKED: ATOM      2  C   UNL     1      13.190  22.795  17.133 -0.29 +0.00    -0.004 C  
DOCKED: ATOM      3  C   UNL     1      11.984  23.708  17.010 -0.24 +0.00    +0.004 C  
DOCKED: ATOM      4  C   UNL     1      11.175  23.383  15.748 -0.36 +0.00    +0.012 C  
DOCKED: ATOM      5  C   UNL     1      10.817  21.891  15.645 -0.27 -0.00    +0.063 C  
DOCKED: ATOM      6  C   UNL     1      11.571  21.074  16.700 -0.25 -0.02    +0.181 C  
DOCKED: ATOM      7  O   UNL     1      11.063  19.747  16.570 -0.11 +0.07    -0.492 OA 
DOCKED: ATOM      8  C   UNL     1       9.690  20.118  16.537 -0.30 -0.01    +0.099 C  
DOCKED: ATOM      9  C   UNL     1       8.752  19.280  17.334 -0.21 -0.01    +0.086 C  
DOCKED: ATOM     10  C   UNL     1       9.474  21.341  16.016 -0.35 +0.00    -0.000 C  
DOCKED: ENDROOT
DOCKED: BRANCH  10  11
DOCKED: ATOM     11  C   UNL     1       8.286  22.146  16.094 -0.34 +0.01    -0.040 C  
DOCKED: ATOM     12  C   UNL     1       8.382  23.502  16.742 -0.27 -0.02    +0.040 C  
DOCKED: ATOM     13  C   UNL     1       7.047  23.986  17.326 -0.21 -0.03    +0.040 C  
DOCKED: ATOM     14  C   UNL     1       5.861  23.641  16.452 -0.23 +0.02    -0.040 A  
DOCKED: ATOM     15  C   UNL     1       4.692  24.412  16.480 -0.22 -0.00    +0.004 A  
DOCKED: ATOM     16  C   UNL     1       3.587  24.041  15.713 -0.22 -0.00    +0.000 A  
DOCKED: ATOM     17  C   UNL     1       3.631  22.889  14.929 -0.29 -0.00    +0.001 A  
DOCKED: ATOM     18  C   UNL     1       4.786  22.108  14.907 -0.34 -0.00    +0.008 A  
DOCKED: ATOM     19  C   UNL     1       5.906  22.484  15.657 -0.24 +0.01    -0.022 A  
DOCKED: ATOM     20  C   UNL     1       7.122  21.670  15.621 -0.29 -0.00    +0.012 C  
DOCKED: ENDBRANCH  10  11
DOCKED: TORSDOF 1
DOCKED: TER
DOCKED: ENDMDL
________________________________________________________________________________


    FINAL DOCKED STATE:
    ________________________


Run:   27 / 50
Time taken for this run:   0.000s

DOCKED: MODEL        27
DOCKED: USER    Run = 27
DOCKED: USER
DOCKED: USER    Estimated Free Energy of Binding    =  -5.06 kcal/mol  [=(1)+(2)+(3)-(4)]
DOCKED: USER
DOCKED: USER    (1) Final Intermolecular Energy     =  -5.36 kcal/mol
DOCKED: USER        vdW + Hbond + desolv Energy     =  -5.37 kcal/mol
DOCKED: USER        Electrostatic Energy            =  +0.01 kcal/mol
DOCKED: USER        Moving Ligand-Fixed Receptor    =  -5.36 kcal/mol
DOCKED: USER        Moving Ligand-Moving Receptor   =  +0.00 kcal/mol
DOCKED: USER    (2) Final Total Internal Energy     =  -0.45 kcal/mol
DOCKED: USER    (3) Torsional Free Energy           =  +0.30 kcal/mol
DOCKED: USER    (4) Unbound System's Energy         =  -0.45 kcal/mol
DOCKED: USER
DOCKED: USER
DOCKED: REMARK  Name = 
DOCKED: REMARK  2 active torsions:
DOCKED: REMARK  status: ('A' for Active; 'I' for Inactive)
DOCKED: REMARK    1  A    between atoms: C_8  and  C_9
DOCKED: REMARK    2  A    between atoms: C_10  and  C_11
DOCKED: REMARK                            x       y       z     vdW  Elec       q    Type
DOCKED: REMARK                         _______ _______ _______ _____ _____    ______ ____
DOCKED: USER                              x       y       z     vdW  Elec       q    Type
DOCKED: USER                           _______ _______ _______ _____ _____    ______ ____
DOCKED: ROOT
DOCKED: ATOM      1  C   UNL     1      13.054  21.366  16.639 -0.34 -0.01    +0.049 C  
DOCKED: ATOM      2  C   UNL     1      13.188  22.796  17.127 -0.29 +0.00    -0.004 C  
DOCKED: ATOM      3  C   UNL     1      11.983  23.709  17.003 -0.24 +0.00    +0.004 C  
DOCKED: ATOM      4  C   UNL     1      11.173  23.383  15.742 -0.36 +0.00    +0.012 C  
DOCKED: ATOM      5  C   UNL     1      10.814  21.891  15.642 -0.27 -0.00    +0.063 C  
DOCKED: ATOM      6  C   UNL     1      11.569  21.074  16.697 -0.25 -0.02    +0.181 C  
DOCKED: ATOM      7  O   UNL     1      11.060  19.748  16.570 -0.11 +0.07    -0.492 OA 
DOCKED: ATOM      8  C   UNL     1       9.687  20.120  16.537 -0.30 -0.01    +0.099 C  
DOCKED: ATOM      9  C   UNL     1       8.749  19.283  17.336 -0.21 -0.01    +0.086 C  
DOCKED: ATOM     10  C   UNL     1       9.471  21.342  16.015 -0.35 +0.00    -0.000 C  
DOCKED: ENDROOT
DOCKED: BRANCH  10  11
DOCKED: ATOM     11  C   UNL     1       8.284  22.147  16.092 -0.34 +0.01    -0.040 C  
DOCKED: ATOM     12  C   UNL     1       8.381  23.506  16.735 -0.27 -0.02    +0.040 C  
DOCKED: ATOM     13  C   UNL     1       7.048  23.993  17.321 -0.21 -0.03    +0.040 C  
DOCKED: ATOM     14  C   UNL     1       5.860  23.644  16.450 -0.23 +0.02    -0.040 A  
DOCKED: ATOM     15  C   UNL     1       4.691  24.416  16.478 -0.22 -0.00    +0.004 A  
DOCKED: ATOM     16  C   UNL     1       3.584  24.043  15.715 -0.22 -0.00    +0.000 A  
DOCKED: ATOM     17  C   UNL     1       3.626  22.888  14.935 -0.29 -0.00    +0.001 A  
DOCKED: ATOM     18  C   UNL     1       4.781  22.105  14.914 -0.33 -0.00    +0.008 A  
DOCKED: ATOM     19  C   UNL     1       5.902  22.484  15.660 -0.24 +0.01    -0.022 A  
DOCKED: ATOM     20  C   UNL     1       7.118  21.670  15.624 -0.29 -0.00    +0.012 C  
DOCKED: ENDBRANCH  10  11
DOCKED: TORSDOF 1
DOCKED: TER
DOCKED: ENDMDL
________________________________________________________________________________


    FINAL DOCKED STATE:
    ________________________


Run:   28 / 50
Time taken for this run:   0.000s

DOCKED: MODEL        28
DOCKED: USER    Run = 28
DOCKED: USER
DOCKED: USER    Estimated Free Energy of Binding    =  -5.06 kcal/mol  [=(1)+(2)+(3)-(4)]
DOCKED: USER
DOCKED: USER    (1) Final Intermolecular Energy     =  -5.36 kcal/mol
DOCKED: USER        vdW + Hbond + desolv Energy     =  -5.37 kcal/mol
DOCKED: USER        Electrostatic Energy            =  +0.01 kcal/mol
DOCKED: USER        Moving Ligand-Fixed Receptor    =  -5.36 kcal/mol
DOCKED: USER        Moving Ligand-Moving Receptor   =  +0.00 kcal/mol
DOCKED: USER    (2) Final Total Internal Energy     =  -0.44 kcal/mol
DOCKED: USER    (3) Torsional Free Energy           =  +0.30 kcal/mol
DOCKED: USER    (4) Unbound System's Energy         =  -0.44 kcal/mol
DOCKED: USER
DOCKED: USER
DOCKED: REMARK  Name = 
DOCKED: REMARK  2 active torsions:
DOCKED: REMARK  status: ('A' for Active; 'I' for Inactive)
DOCKED: REMARK    1  A    between atoms: C_8  and  C_9
DOCKED: REMARK    2  A    between atoms: C_10  and  C_11
DOCKED: REMARK                            x       y       z     vdW  Elec       q    Type
DOCKED: REMARK                         _______ _______ _______ _____ _____    ______ ____
DOCKED: USER                              x       y       z     vdW  Elec       q    Type
DOCKED: USER                           _______ _______ _______ _____ _____    ______ ____
DOCKED: ROOT
DOCKED: ATOM      1  C   UNL     1      13.033  21.363  16.638 -0.34 -0.01    +0.049 C  
DOCKED: ATOM      2  C   UNL     1      13.164  22.784  17.154 -0.29 +0.00    -0.004 C  
DOCKED: ATOM      3  C   UNL     1      11.958  23.698  17.046 -0.24 +0.00    +0.004 C  
DOCKED: ATOM      4  C   UNL     1      11.151  23.395  15.777 -0.36 +0.00    +0.012 C  
DOCKED: ATOM      5  C   UNL     1      10.794  21.905  15.647 -0.27 -0.00    +0.063 C  
DOCKED: ATOM      6  C   UNL     1      11.548  21.069  16.688 -0.25 -0.02    +0.181 C  
DOCKED: ATOM      7  O   UNL     1      11.041  19.745  16.533 -0.11 +0.07    -0.492 OA 
DOCKED: ATOM      8  C   UNL     1       9.667  20.116  16.505 -0.31 -0.01    +0.099 C  
DOCKED: ATOM      9  C   UNL     1       8.729  19.263  17.286 -0.22 -0.01    +0.086 C  
DOCKED: ATOM     10  C   UNL     1       9.451  21.348  16.007 -0.35 +0.00    -0.000 C  
DOCKED: ENDROOT
DOCKED: BRANCH  10  11
DOCKED: ATOM     11  C   UNL     1       8.263  22.150  16.098 -0.34 +0.01    -0.040 C  
DOCKED: ATOM     12  C   UNL     1       8.361  23.504  16.751 -0.27 -0.02    +0.040 C  
DOCKED: ATOM     13  C   UNL     1       7.031  23.983  17.349 -0.21 -0.03    +0.040 C  
DOCKED: ATOM     14  C   UNL     1       5.838  23.639  16.483 -0.23 +0.02    -0.040 A  
DOCKED: ATOM     15  C   UNL     1       4.667  24.408  16.524 -0.21 -0.00    +0.004 A  
DOCKED: ATOM     16  C   UNL     1       3.557  24.039  15.764 -0.21 -0.00    +0.000 A  
DOCKED: ATOM     17  C   UNL     1       3.597  22.891  14.975 -0.29 -0.00    +0.001 A  
DOCKED: ATOM     18  C   UNL     1       4.753  22.111  14.940 -0.33 -0.00    +0.008 A  
DOCKED: ATOM     19  C   UNL     1       5.878  22.486  15.682 -0.24 +0.01    -0.022 A  
DOCKED: ATOM     20  C   UNL     1       7.095  21.674  15.632 -0.30 -0.00    +0.012 C  
DOCKED: ENDBRANCH  10  11
DOCKED: TORSDOF 1
DOCKED: TER
DOCKED: ENDMDL
________________________________________________________________________________


    FINAL DOCKED STATE:
    ________________________


Run:   29 / 50
Time taken for this run:   0.000s

DOCKED: MODEL        29
DOCKED: USER    Run = 29
DOCKED: USER
DOCKED: USER    Estimated Free Energy of Binding    =  -5.05 kcal/mol  [=(1)+(2)+(3)-(4)]
DOCKED: USER
DOCKED: USER    (1) Final Intermolecular Energy     =  -5.35 kcal/mol
DOCKED: USER        vdW + Hbond + desolv Energy     =  -5.36 kcal/mol
DOCKED: USER        Electrostatic Energy            =  +0.01 kcal/mol
DOCKED: USER        Moving Ligand-Fixed Receptor    =  -5.35 kcal/mol
DOCKED: USER        Moving Ligand-Moving Receptor   =  +0.00 kcal/mol
DOCKED: USER    (2) Final Total Internal Energy     =  -0.46 kcal/mol
DOCKED: USER    (3) Torsional Free Energy           =  +0.30 kcal/mol
DOCKED: USER    (4) Unbound System's Energy         =  -0.46 kcal/mol
DOCKED: USER
DOCKED: USER
DOCKED: REMARK  Name = 
DOCKED: REMARK  2 active torsions:
DOCKED: REMARK  status: ('A' for Active; 'I' for Inactive)
DOCKED: REMARK    1  A    between atoms: C_8  and  C_9
DOCKED: REMARK    2  A    between atoms: C_10  and  C_11
DOCKED: REMARK                            x       y       z     vdW  Elec       q    Type
DOCKED: REMARK                         _______ _______ _______ _____ _____    ______ ____
DOCKED: USER                              x       y       z     vdW  Elec       q    Type
DOCKED: USER                           _______ _______ _______ _____ _____    ______ ____
DOCKED: ROOT
DOCKED: ATOM      1  C   UNL     1      13.048  21.368  16.673 -0.34 -0.01    +0.049 C  
DOCKED: ATOM      2  C   UNL     1      13.184  22.808  17.130 -0.29 +0.00    -0.004 C  
DOCKED: ATOM      3  C   UNL     1      11.981  23.721  16.987 -0.24 +0.00    +0.004 C  
DOCKED: ATOM      4  C   UNL     1      11.171  23.369  15.733 -0.36 +0.00    +0.012 C  
DOCKED: ATOM      5  C   UNL     1      10.809  21.876  15.665 -0.27 -0.00    +0.063 C  
DOCKED: ATOM      6  C   UNL     1      11.562  21.081  16.738 -0.24 -0.02    +0.181 C  
DOCKED: ATOM      7  O   UNL     1      11.051  19.753  16.638 -0.10 +0.07    -0.492 OA 
DOCKED: ATOM      8  C   UNL     1       9.678  20.127  16.598 -0.29 -0.01    +0.099 C  
DOCKED: ATOM      9  C   UNL     1       8.739  19.309  17.414 -0.20 -0.01    +0.086 C  
DOCKED: ATOM     10  C   UNL     1       9.465  21.338  16.049 -0.35 +0.00    -0.000 C  
DOCKED: ENDROOT
DOCKED: BRANCH  10  11
DOCKED: ATOM     11  C   UNL     1       8.279  22.146  16.110 -0.34 +0.01    -0.040 C  
DOCKED: ATOM     12  C   UNL     1       8.372  23.507  16.749 -0.27 -0.02    +0.040 C  
DOCKED: ATOM     13  C   UNL     1       7.034  24.000  17.316 -0.21 -0.03    +0.040 C  
DOCKED: ATOM     14  C   UNL     1       5.855  23.652  16.433 -0.23 +0.02    -0.040 A  
DOCKED: ATOM     15  C   UNL     1       4.688  24.427  16.444 -0.22 -0.00    +0.004 A  
DOCKED: ATOM     16  C   UNL     1       3.589  24.054  15.668 -0.22 -0.00    +0.000 A  
DOCKED: ATOM     17  C   UNL     1       3.638  22.897  14.893 -0.30 -0.00    +0.001 A  
DOCKED: ATOM     18  C   UNL     1       4.790  22.111  14.889 -0.34 -0.00    +0.008 A  
DOCKED: ATOM     19  C   UNL     1       5.904  22.489  15.647 -0.24 +0.01    -0.022 A  
DOCKED: ATOM     20  C   UNL     1       7.117  21.671  15.628 -0.30 -0.00    +0.012 C  
DOCKED: ENDBRANCH  10  11
DOCKED: TORSDOF 1
DOCKED: TER
DOCKED: ENDMDL
________________________________________________________________________________


    FINAL DOCKED STATE:
    ________________________


Run:   30 / 50
Time taken for this run:   0.000s

DOCKED: MODEL        30
DOCKED: USER    Run = 30
DOCKED: USER
DOCKED: USER    Estimated Free Energy of Binding    =  -5.07 kcal/mol  [=(1)+(2)+(3)-(4)]
DOCKED: USER
DOCKED: USER    (1) Final Intermolecular Energy     =  -5.37 kcal/mol
DOCKED: USER        vdW + Hbond + desolv Energy     =  -5.37 kcal/mol
DOCKED: USER        Electrostatic Energy            =  +0.01 kcal/mol
DOCKED: USER        Moving Ligand-Fixed Receptor    =  -5.37 kcal/mol
DOCKED: USER        Moving Ligand-Moving Receptor   =  +0.00 kcal/mol
DOCKED: USER    (2) Final Total Internal Energy     =  -0.44 kcal/mol
DOCKED: USER    (3) Torsional Free Energy           =  +0.30 kcal/mol
DOCKED: USER    (4) Unbound System's Energy         =  -0.44 kcal/mol
DOCKED: USER
DOCKED: USER
DOCKED: REMARK  Name = 
DOCKED: REMARK  2 active torsions:
DOCKED: REMARK  status: ('A' for Active; 'I' for Inactive)
DOCKED: REMARK    1  A    between atoms: C_8  and  C_9
DOCKED: REMARK    2  A    between atoms: C_10  and  C_11
DOCKED: REMARK                            x       y       z     vdW  Elec       q    Type
DOCKED: REMARK                         _______ _______ _______ _____ _____    ______ ____
DOCKED: USER                              x       y       z     vdW  Elec       q    Type
DOCKED: USER                           _______ _______ _______ _____ _____    ______ ____
DOCKED: ROOT
DOCKED: ATOM      1  C   UNL     1      13.055  21.365  16.643 -0.34 -0.01    +0.049 C  
DOCKED: ATOM      2  C   UNL     1      13.188  22.793  17.138 -0.29 +0.00    -0.004 C  
DOCKED: ATOM      3  C   UNL     1      11.982  23.706  17.017 -0.24 +0.00    +0.004 C  
DOCKED: ATOM      4  C   UNL     1      11.174  23.385  15.753 -0.36 +0.00    +0.012 C  
DOCKED: ATOM      5  C   UNL     1      10.816  21.893  15.646 -0.27 -0.00    +0.063 C  
DOCKED: ATOM      6  C   UNL     1      11.570  21.073  16.699 -0.25 -0.02    +0.181 C  
DOCKED: ATOM      7  O   UNL     1      11.062  19.746  16.565 -0.11 +0.07    -0.492 OA 
DOCKED: ATOM      8  C   UNL     1       9.688  20.118  16.532 -0.30 -0.01    +0.099 C  
DOCKED: ATOM      9  C   UNL     1       8.750  19.278  17.327 -0.22 -0.01    +0.086 C  
DOCKED: ATOM     10  C   UNL     1       9.473  21.342  16.015 -0.35 +0.00    -0.000 C  
DOCKED: ENDROOT
DOCKED: BRANCH  10  11
DOCKED: ATOM     11  C   UNL     1       8.285  22.146  16.095 -0.34 +0.01    -0.040 C  
DOCKED: ATOM     12  C   UNL     1       8.382  23.506  16.737 -0.27 -0.02    +0.040 C  
DOCKED: ATOM     13  C   UNL     1       7.050  23.992  17.325 -0.21 -0.03    +0.040 C  
DOCKED: ATOM     14  C   UNL     1       5.860  23.642  16.458 -0.23 +0.02    -0.040 A  
DOCKED: ATOM     15  C   UNL     1       4.691  24.412  16.488 -0.22 -0.00    +0.004 A  
DOCKED: ATOM     16  C   UNL     1       3.582  24.038  15.726 -0.22 -0.00    +0.000 A  
DOCKED: ATOM     17  C   UNL     1       3.624  22.883  14.947 -0.29 -0.00    +0.001 A  
DOCKED: ATOM     18  C   UNL     1       4.779  22.102  14.924 -0.33 -0.00    +0.008 A  
DOCKED: ATOM     19  C   UNL     1       5.902  22.482  15.668 -0.24 +0.01    -0.022 A  
DOCKED: ATOM     20  C   UNL     1       7.118  21.668  15.629 -0.30 -0.00    +0.012 C  
DOCKED: ENDBRANCH  10  11
DOCKED: TORSDOF 1
DOCKED: TER
DOCKED: ENDMDL
________________________________________________________________________________


    FINAL DOCKED STATE:
    ________________________


Run:   31 / 50
Time taken for this run:   0.000s

DOCKED: MODEL        31
DOCKED: USER    Run = 31
DOCKED: USER
DOCKED: USER    Estimated Free Energy of Binding    =  -5.07 kcal/mol  [=(1)+(2)+(3)-(4)]
DOCKED: USER
DOCKED: USER    (1) Final Intermolecular Energy     =  -5.37 kcal/mol
DOCKED: USER        vdW + Hbond + desolv Energy     =  -5.38 kcal/mol
DOCKED: USER        Electrostatic Energy            =  +0.01 kcal/mol
DOCKED: USER        Moving Ligand-Fixed Receptor    =  -5.37 kcal/mol
DOCKED: USER        Moving Ligand-Moving Receptor   =  +0.00 kcal/mol
DOCKED: USER    (2) Final Total Internal Energy     =  -0.44 kcal/mol
DOCKED: USER    (3) Torsional Free Energy           =  +0.30 kcal/mol
DOCKED: USER    (4) Unbound System's Energy         =  -0.44 kcal/mol
DOCKED: USER
DOCKED: USER
DOCKED: REMARK  Name = 
DOCKED: REMARK  2 active torsions:
DOCKED: REMARK  status: ('A' for Active; 'I' for Inactive)
DOCKED: REMARK    1  A    between atoms: C_8  and  C_9
DOCKED: REMARK    2  A    between atoms: C_10  and  C_11
DOCKED: REMARK                            x       y       z     vdW  Elec       q    Type
DOCKED: REMARK                         _______ _______ _______ _____ _____    ______ ____
DOCKED: USER                              x       y       z     vdW  Elec       q    Type
DOCKED: USER                           _______ _______ _______ _____ _____    ______ ____
DOCKED: ROOT
DOCKED: ATOM      1  C   UNL     1      13.056  21.382  16.637 -0.34 -0.01    +0.049 C  
DOCKED: ATOM      2  C   UNL     1      13.184  22.808  17.138 -0.29 +0.00    -0.004 C  
DOCKED: ATOM      3  C   UNL     1      11.976  23.718  17.020 -0.24 +0.00    +0.004 C  
DOCKED: ATOM      4  C   UNL     1      11.169  23.399  15.755 -0.36 +0.00    +0.012 C  
DOCKED: ATOM      5  C   UNL     1      10.815  21.907  15.642 -0.27 -0.00    +0.063 C  
DOCKED: ATOM      6  C   UNL     1      11.571  21.085  16.692 -0.25 -0.02    +0.181 C  
DOCKED: ATOM      7  O   UNL     1      11.068  19.757  16.552 -0.11 +0.07    -0.492 OA 
DOCKED: ATOM      8  C   UNL     1       9.693  20.125  16.521 -0.30 -0.01    +0.099 C  
DOCKED: ATOM      9  C   UNL     1       8.757  19.278  17.312 -0.22 -0.01    +0.086 C  
DOCKED: ATOM     10  C   UNL     1       9.474  21.350  16.009 -0.35 +0.00    -0.000 C  
DOCKED: ENDROOT
DOCKED: BRANCH  10  11
DOCKED: ATOM     11  C   UNL     1       8.283  22.150  16.092 -0.34 +0.01    -0.040 C  
DOCKED: ATOM     12  C   UNL     1       8.378  23.510  16.733 -0.27 -0.02    +0.040 C  
DOCKED: ATOM     13  C   UNL     1       7.046  23.992  17.325 -0.21 -0.03    +0.040 C  
DOCKED: ATOM     14  C   UNL     1       5.855  23.637  16.461 -0.23 +0.02    -0.040 A  
DOCKED: ATOM     15  C   UNL     1       4.682  24.404  16.494 -0.21 -0.00    +0.004 A  
DOCKED: ATOM     16  C   UNL     1       3.573  24.026  15.736 -0.21 -0.00    +0.000 A  
DOCKED: ATOM     17  C   UNL     1       3.617  22.870  14.957 -0.29 -0.00    +0.001 A  
DOCKED: ATOM     18  C   UNL     1       4.775  22.093  14.931 -0.33 -0.00    +0.008 A  
DOCKED: ATOM     19  C   UNL     1       5.898  22.477  15.671 -0.24 +0.01    -0.022 A  
DOCKED: ATOM     20  C   UNL     1       7.117  21.668  15.629 -0.30 -0.00    +0.012 C  
DOCKED: ENDBRANCH  10  11
DOCKED: TORSDOF 1
DOCKED: TER
DOCKED: ENDMDL
________________________________________________________________________________


    FINAL DOCKED STATE:
    ________________________


Run:   32 / 50
Time taken for this run:   0.000s

DOCKED: MODEL        32
DOCKED: USER    Run = 32
DOCKED: USER
DOCKED: USER    Estimated Free Energy of Binding    =  -4.86 kcal/mol  [=(1)+(2)+(3)-(4)]
DOCKED: USER
DOCKED: USER    (1) Final Intermolecular Energy     =  -5.16 kcal/mol
DOCKED: USER        vdW + Hbond + desolv Energy     =  -5.19 kcal/mol
DOCKED: USER        Electrostatic Energy            =  +0.03 kcal/mol
DOCKED: USER        Moving Ligand-Fixed Receptor    =  -5.16 kcal/mol
DOCKED: USER        Moving Ligand-Moving Receptor   =  +0.00 kcal/mol
DOCKED: USER    (2) Final Total Internal Energy     =  -0.56 kcal/mol
DOCKED: USER    (3) Torsional Free Energy           =  +0.30 kcal/mol
DOCKED: USER    (4) Unbound System's Energy         =  -0.56 kcal/mol
DOCKED: USER
DOCKED: USER
DOCKED: REMARK  Name = 
DOCKED: REMARK  2 active torsions:
DOCKED: REMARK  status: ('A' for Active; 'I' for Inactive)
DOCKED: REMARK    1  A    between atoms: C_8  and  C_9
DOCKED: REMARK    2  A    between atoms: C_10  and  C_11
DOCKED: REMARK                            x       y       z     vdW  Elec       q    Type
DOCKED: REMARK                         _______ _______ _______ _____ _____    ______ ____
DOCKED: USER                              x       y       z     vdW  Elec       q    Type
DOCKED: USER                           _______ _______ _______ _____ _____    ______ ____
DOCKED: ROOT
DOCKED: ATOM      1  C   UNL     1       7.484  18.890  16.471 -0.27 -0.00    +0.049 C  
DOCKED: ATOM      2  C   UNL     1       8.228  18.124  17.549 -0.21 +0.00    -0.004 C  
DOCKED: ATOM      3  C   UNL     1       9.680  18.481  17.807 -0.25 -0.00    +0.004 C  
DOCKED: ATOM      4  C   UNL     1      10.384  18.892  16.507 -0.34 -0.00    +0.012 C  
DOCKED: ATOM      5  C   UNL     1       9.619  19.984  15.742 -0.38 -0.01    +0.063 C  
DOCKED: ATOM      6  C   UNL     1       8.228  20.204  16.347 -0.25 -0.03    +0.181 C  
DOCKED: ATOM      7  O   UNL     1       7.682  21.308  15.626 -0.15 +0.13    -0.492 OA 
DOCKED: ATOM      8  C   UNL     1       8.841  22.130  15.719 -0.34 -0.02    +0.099 C  
DOCKED: ATOM      9  C   UNL     1       8.615  23.568  16.032 -0.27 -0.03    +0.086 C  
DOCKED: ATOM     10  C   UNL     1       9.992  21.435  15.789 -0.26 +0.00    -0.000 C  
DOCKED: ENDROOT
DOCKED: BRANCH  10  11
DOCKED: ATOM     11  C   UNL     1      11.293  21.902  16.179 -0.34 +0.00    -0.040 C  
DOCKED: ATOM     12  C   UNL     1      12.501  21.297  15.513 -0.47 -0.00    +0.040 C  
DOCKED: ATOM     13  C   UNL     1      13.767  21.371  16.378 -0.30 -0.01    +0.040 C  
DOCKED: ATOM     14  C   UNL     1      13.887  22.677  17.135 -0.25 +0.00    -0.040 A  
DOCKED: ATOM     15  C   UNL     1      15.138  23.181  17.515 -0.28 -0.00    +0.004 A  
DOCKED: ATOM     16  C   UNL     1      15.225  24.354  18.265 -0.16 -0.00    +0.000 A  
DOCKED: ATOM     17  C   UNL     1      14.067  25.022  18.660 -0.11 -0.00    +0.001 A  
DOCKED: ATOM     18  C   UNL     1      12.817  24.518  18.299 -0.13 -0.00    +0.008 A  
DOCKED: ATOM     19  C   UNL     1      12.722  23.354  17.528 -0.19 +0.00    -0.022 A  
DOCKED: ATOM     20  C   UNL     1      11.410  22.837  17.138 -0.24 -0.00    +0.012 C  
DOCKED: ENDBRANCH  10  11
DOCKED: TORSDOF 1
DOCKED: TER
DOCKED: ENDMDL
________________________________________________________________________________


    FINAL DOCKED STATE:
    ________________________


Run:   33 / 50
Time taken for this run:   0.000s

DOCKED: MODEL        33
DOCKED: USER    Run = 33
DOCKED: USER
DOCKED: USER    Estimated Free Energy of Binding    =  -5.07 kcal/mol  [=(1)+(2)+(3)-(4)]
DOCKED: USER
DOCKED: USER    (1) Final Intermolecular Energy     =  -5.36 kcal/mol
DOCKED: USER        vdW + Hbond + desolv Energy     =  -5.37 kcal/mol
DOCKED: USER        Electrostatic Energy            =  +0.01 kcal/mol
DOCKED: USER        Moving Ligand-Fixed Receptor    =  -5.36 kcal/mol
DOCKED: USER        Moving Ligand-Moving Receptor   =  +0.00 kcal/mol
DOCKED: USER    (2) Final Total Internal Energy     =  -0.44 kcal/mol
DOCKED: USER    (3) Torsional Free Energy           =  +0.30 kcal/mol
DOCKED: USER    (4) Unbound System's Energy         =  -0.44 kcal/mol
DOCKED: USER
DOCKED: USER
DOCKED: REMARK  Name = 
DOCKED: REMARK  2 active torsions:
DOCKED: REMARK  status: ('A' for Active; 'I' for Inactive)
DOCKED: REMARK    1  A    between atoms: C_8  and  C_9
DOCKED: REMARK    2  A    between atoms: C_10  and  C_11
DOCKED: REMARK                            x       y       z     vdW  Elec       q    Type
DOCKED: REMARK                         _______ _______ _______ _____ _____    ______ ____
DOCKED: USER                              x       y       z     vdW  Elec       q    Type
DOCKED: USER                           _______ _______ _______ _____ _____    ______ ____
DOCKED: ROOT
DOCKED: ATOM      1  C   UNL     1      13.062  21.405  16.628 -0.34 -0.01    +0.049 C  
DOCKED: ATOM      2  C   UNL     1      13.187  22.825  17.148 -0.29 +0.00    -0.004 C  
DOCKED: ATOM      3  C   UNL     1      11.976  23.733  17.044 -0.24 +0.00    +0.004 C  
DOCKED: ATOM      4  C   UNL     1      11.168  23.429  15.777 -0.36 +0.00    +0.012 C  
DOCKED: ATOM      5  C   UNL     1      10.818  21.938  15.644 -0.28 -0.00    +0.063 C  
DOCKED: ATOM      6  C   UNL     1      11.578  21.103  16.681 -0.25 -0.02    +0.181 C  
DOCKED: ATOM      7  O   UNL     1      11.078  19.776  16.524 -0.11 +0.07    -0.492 OA 
DOCKED: ATOM      8  C   UNL     1       9.702  20.141  16.500 -0.31 -0.01    +0.099 C  
DOCKED: ATOM      9  C   UNL     1       8.769  19.282  17.281 -0.22 -0.01    +0.086 C  
DOCKED: ATOM     10  C   UNL     1       9.479  21.373  16.005 -0.35 +0.00    -0.000 C  
DOCKED: ENDROOT
DOCKED: BRANCH  10  11
DOCKED: ATOM     11  C   UNL     1       8.287  22.169  16.100 -0.34 +0.01    -0.040 C  
DOCKED: ATOM     12  C   UNL     1       8.379  23.520  16.759 -0.27 -0.02    +0.040 C  
DOCKED: ATOM     13  C   UNL     1       7.047  23.991  17.359 -0.21 -0.03    +0.040 C  
DOCKED: ATOM     14  C   UNL     1       5.855  23.645  16.493 -0.23 +0.02    -0.040 A  
DOCKED: ATOM     15  C   UNL     1       4.681  24.408  16.538 -0.21 -0.00    +0.004 A  
DOCKED: ATOM     16  C   UNL     1       3.571  24.037  15.777 -0.21 -0.00    +0.000 A  
DOCKED: ATOM     17  C   UNL     1       3.617  22.892  14.983 -0.29 -0.00    +0.001 A  
DOCKED: ATOM     18  C   UNL     1       4.776  22.118  14.945 -0.33 -0.00    +0.008 A  
DOCKED: ATOM     19  C   UNL     1       5.900  22.495  15.688 -0.24 +0.01    -0.022 A  
DOCKED: ATOM     20  C   UNL     1       7.121  21.690  15.633 -0.31 -0.00    +0.012 C  
DOCKED: ENDBRANCH  10  11
DOCKED: TORSDOF 1
DOCKED: TER
DOCKED: ENDMDL
________________________________________________________________________________


    FINAL DOCKED STATE:
    ________________________


Run:   34 / 50
Time taken for this run:   0.000s

DOCKED: MODEL        34
DOCKED: USER    Run = 34
DOCKED: USER
DOCKED: USER    Estimated Free Energy of Binding    =  -5.05 kcal/mol  [=(1)+(2)+(3)-(4)]
DOCKED: USER
DOCKED: USER    (1) Final Intermolecular Energy     =  -5.35 kcal/mol
DOCKED: USER        vdW + Hbond + desolv Energy     =  -5.36 kcal/mol
DOCKED: USER        Electrostatic Energy            =  +0.01 kcal/mol
DOCKED: USER        Moving Ligand-Fixed Receptor    =  -5.35 kcal/mol
DOCKED: USER        Moving Ligand-Moving Receptor   =  +0.00 kcal/mol
DOCKED: USER    (2) Final Total Internal Energy     =  -0.45 kcal/mol
DOCKED: USER    (3) Torsional Free Energy           =  +0.30 kcal/mol
DOCKED: USER    (4) Unbound System's Energy         =  -0.45 kcal/mol
DOCKED: USER
DOCKED: USER
DOCKED: REMARK  Name = 
DOCKED: REMARK  2 active torsions:
DOCKED: REMARK  status: ('A' for Active; 'I' for Inactive)
DOCKED: REMARK    1  A    between atoms: C_8  and  C_9
DOCKED: REMARK    2  A    between atoms: C_10  and  C_11
DOCKED: REMARK                            x       y       z     vdW  Elec       q    Type
DOCKED: REMARK                         _______ _______ _______ _____ _____    ______ ____
DOCKED: USER                              x       y       z     vdW  Elec       q    Type
DOCKED: USER                           _______ _______ _______ _____ _____    ______ ____
DOCKED: ROOT
DOCKED: ATOM      1  C   UNL     1      13.061  21.369  16.648 -0.34 -0.01    +0.049 C  
DOCKED: ATOM      2  C   UNL     1      13.195  22.805  17.118 -0.29 +0.00    -0.004 C  
DOCKED: ATOM      3  C   UNL     1      11.990  23.716  16.984 -0.24 +0.00    +0.004 C  
DOCKED: ATOM      4  C   UNL     1      11.179  23.374  15.728 -0.36 +0.00    +0.012 C  
DOCKED: ATOM      5  C   UNL     1      10.820  21.881  15.646 -0.27 -0.00    +0.063 C  
DOCKED: ATOM      6  C   UNL     1      11.576  21.078  16.711 -0.25 -0.02    +0.181 C  
DOCKED: ATOM      7  O   UNL     1      11.068  19.749  16.600 -0.10 +0.07    -0.492 OA 
DOCKED: ATOM      8  C   UNL     1       9.694  20.121  16.564 -0.30 -0.01    +0.099 C  
DOCKED: ATOM      9  C   UNL     1       8.757  19.294  17.374 -0.21 -0.01    +0.086 C  
DOCKED: ATOM     10  C   UNL     1       9.478  21.336  16.027 -0.35 +0.00    -0.000 C  
DOCKED: ENDROOT
DOCKED: BRANCH  10  11
DOCKED: ATOM     11  C   UNL     1       8.290  22.142  16.095 -0.34 +0.01    -0.040 C  
DOCKED: ATOM     12  C   UNL     1       8.384  23.502  16.736 -0.27 -0.02    +0.040 C  
DOCKED: ATOM     13  C   UNL     1       7.047  23.990  17.313 -0.21 -0.03    +0.040 C  
DOCKED: ATOM     14  C   UNL     1       5.865  23.641  16.435 -0.23 +0.02    -0.040 A  
DOCKED: ATOM     15  C   UNL     1       4.696  24.413  16.454 -0.22 -0.00    +0.004 A  
DOCKED: ATOM     16  C   UNL     1       3.594  24.039  15.684 -0.22 -0.00    +0.000 A  
DOCKED: ATOM     17  C   UNL     1       3.641  22.883  14.906 -0.30 -0.00    +0.001 A  
DOCKED: ATOM     18  C   UNL     1       4.795  22.100  14.894 -0.34 -0.00    +0.008 A  
DOCKED: ATOM     19  C   UNL     1       5.912  22.479  15.647 -0.24 +0.01    -0.022 A  
DOCKED: ATOM     20  C   UNL     1       7.127  21.665  15.620 -0.29 -0.00    +0.012 C  
DOCKED: ENDBRANCH  10  11
DOCKED: TORSDOF 1
DOCKED: TER
DOCKED: ENDMDL
________________________________________________________________________________


    FINAL DOCKED STATE:
    ________________________


Run:   35 / 50
Time taken for this run:   0.000s

DOCKED: MODEL        35
DOCKED: USER    Run = 35
DOCKED: USER
DOCKED: USER    Estimated Free Energy of Binding    =  -5.07 kcal/mol  [=(1)+(2)+(3)-(4)]
DOCKED: USER
DOCKED: USER    (1) Final Intermolecular Energy     =  -5.37 kcal/mol
DOCKED: USER        vdW + Hbond + desolv Energy     =  -5.37 kcal/mol
DOCKED: USER        Electrostatic Energy            =  +0.01 kcal/mol
DOCKED: USER        Moving Ligand-Fixed Receptor    =  -5.37 kcal/mol
DOCKED: USER        Moving Ligand-Moving Receptor   =  +0.00 kcal/mol
DOCKED: USER    (2) Final Total Internal Energy     =  -0.44 kcal/mol
DOCKED: USER    (3) Torsional Free Energy           =  +0.30 kcal/mol
DOCKED: USER    (4) Unbound System's Energy         =  -0.44 kcal/mol
DOCKED: USER
DOCKED: USER
DOCKED: REMARK  Name = 
DOCKED: REMARK  2 active torsions:
DOCKED: REMARK  status: ('A' for Active; 'I' for Inactive)
DOCKED: REMARK    1  A    between atoms: C_8  and  C_9
DOCKED: REMARK    2  A    between atoms: C_10  and  C_11
DOCKED: REMARK                            x       y       z     vdW  Elec       q    Type
DOCKED: REMARK                         _______ _______ _______ _____ _____    ______ ____
DOCKED: USER                              x       y       z     vdW  Elec       q    Type
DOCKED: USER                           _______ _______ _______ _____ _____    ______ ____
DOCKED: ROOT
DOCKED: ATOM      1  C   UNL     1      13.058  21.395  16.635 -0.34 -0.01    +0.049 C  
DOCKED: ATOM      2  C   UNL     1      13.185  22.816  17.149 -0.29 +0.00    -0.004 C  
DOCKED: ATOM      3  C   UNL     1      11.976  23.726  17.041 -0.24 +0.00    +0.004 C  
DOCKED: ATOM      4  C   UNL     1      11.169  23.419  15.773 -0.36 +0.00    +0.012 C  
DOCKED: ATOM      5  C   UNL     1      10.816  21.928  15.645 -0.28 -0.00    +0.063 C  
DOCKED: ATOM      6  C   UNL     1      11.574  21.096  16.687 -0.25 -0.02    +0.181 C  
DOCKED: ATOM      7  O   UNL     1      11.071  19.769  16.534 -0.11 +0.07    -0.492 OA 
DOCKED: ATOM      8  C   UNL     1       9.696  20.136  16.507 -0.31 -0.01    +0.099 C  
DOCKED: ATOM      9  C   UNL     1       8.761  19.281  17.289 -0.22 -0.01    +0.086 C  
DOCKED: ATOM     10  C   UNL     1       9.476  21.366  16.007 -0.35 +0.00    -0.000 C  
DOCKED: ENDROOT
DOCKED: BRANCH  10  11
DOCKED: ATOM     11  C   UNL     1       8.285  22.165  16.098 -0.34 +0.01    -0.040 C  
DOCKED: ATOM     12  C   UNL     1       8.379  23.519  16.751 -0.27 -0.02    +0.040 C  
DOCKED: ATOM     13  C   UNL     1       7.047  23.994  17.348 -0.21 -0.03    +0.040 C  
DOCKED: ATOM     14  C   UNL     1       5.855  23.646  16.483 -0.23 +0.02    -0.040 A  
DOCKED: ATOM     15  C   UNL     1       4.682  24.411  16.524 -0.21 -0.00    +0.004 A  
DOCKED: ATOM     16  C   UNL     1       3.573  24.039  15.764 -0.21 -0.00    +0.000 A  
DOCKED: ATOM     17  C   UNL     1       3.616  22.890  14.975 -0.29 -0.00    +0.001 A  
DOCKED: ATOM     18  C   UNL     1       4.775  22.114  14.941 -0.33 -0.00    +0.008 A  
DOCKED: ATOM     19  C   UNL     1       5.899  22.493  15.683 -0.24 +0.01    -0.022 A  
DOCKED: ATOM     20  C   UNL     1       7.118  21.685  15.632 -0.30 -0.00    +0.012 C  
DOCKED: ENDBRANCH  10  11
DOCKED: TORSDOF 1
DOCKED: TER
DOCKED: ENDMDL
________________________________________________________________________________


    FINAL DOCKED STATE:
    ________________________


Run:   36 / 50
Time taken for this run:   0.000s

DOCKED: MODEL        36
DOCKED: USER    Run = 36
DOCKED: USER
DOCKED: USER    Estimated Free Energy of Binding    =  -5.08 kcal/mol  [=(1)+(2)+(3)-(4)]
DOCKED: USER
DOCKED: USER    (1) Final Intermolecular Energy     =  -5.38 kcal/mol
DOCKED: USER        vdW + Hbond + desolv Energy     =  -5.38 kcal/mol
DOCKED: USER        Electrostatic Energy            =  +0.01 kcal/mol
DOCKED: USER        Moving Ligand-Fixed Receptor    =  -5.38 kcal/mol
DOCKED: USER        Moving Ligand-Moving Receptor   =  +0.00 kcal/mol
DOCKED: USER    (2) Final Total Internal Energy     =  -0.43 kcal/mol
DOCKED: USER    (3) Torsional Free Energy           =  +0.30 kcal/mol
DOCKED: USER    (4) Unbound System's Energy         =  -0.43 kcal/mol
DOCKED: USER
DOCKED: USER
DOCKED: REMARK  Name = 
DOCKED: REMARK  2 active torsions:
DOCKED: REMARK  status: ('A' for Active; 'I' for Inactive)
DOCKED: REMARK    1  A    between atoms: C_8  and  C_9
DOCKED: REMARK    2  A    between atoms: C_10  and  C_11
DOCKED: REMARK                            x       y       z     vdW  Elec       q    Type
DOCKED: REMARK                         _______ _______ _______ _____ _____    ______ ____
DOCKED: USER                              x       y       z     vdW  Elec       q    Type
DOCKED: USER                           _______ _______ _______ _____ _____    ______ ____
DOCKED: ROOT
DOCKED: ATOM      1  C   UNL     1      13.052  21.389  16.654 -0.34 -0.01    +0.049 C  
DOCKED: ATOM      2  C   UNL     1      13.178  22.828  17.119 -0.29 +0.00    -0.004 C  
DOCKED: ATOM      3  C   UNL     1      11.971  23.735  16.972 -0.24 +0.00    +0.004 C  
DOCKED: ATOM      4  C   UNL     1      11.169  23.384  15.712 -0.36 +0.00    +0.012 C  
DOCKED: ATOM      5  C   UNL     1      10.816  21.889  15.636 -0.27 -0.00    +0.063 C  
DOCKED: ATOM      6  C   UNL     1      11.567  21.094  16.710 -0.25 -0.02    +0.181 C  
DOCKED: ATOM      7  O   UNL     1      11.064  19.763  16.603 -0.10 +0.07    -0.492 OA 
DOCKED: ATOM      8  C   UNL     1       9.689  20.130  16.556 -0.30 -0.01    +0.099 C  
DOCKED: ATOM      9  C   UNL     1       8.749  19.305  17.364 -0.21 -0.01    +0.086 C  
DOCKED: ATOM     10  C   UNL     1       9.472  21.342  16.011 -0.35 +0.00    -0.000 C  
DOCKED: ENDROOT
DOCKED: BRANCH  10  11
DOCKED: ATOM     11  C   UNL     1       8.282  22.145  16.068 -0.34 +0.01    -0.040 C  
DOCKED: ATOM     12  C   UNL     1       8.378  23.527  16.659 -0.28 -0.02    +0.040 C  
DOCKED: ATOM     13  C   UNL     1       7.047  24.029  17.236 -0.21 -0.03    +0.040 C  
DOCKED: ATOM     14  C   UNL     1       5.854  23.644  16.389 -0.24 +0.02    -0.040 A  
DOCKED: ATOM     15  C   UNL     1       4.682  24.411  16.397 -0.22 -0.00    +0.004 A  
DOCKED: ATOM     16  C   UNL     1       3.571  24.005  15.656 -0.22 -0.00    +0.000 A  
DOCKED: ATOM     17  C   UNL     1       3.613  22.823  14.919 -0.29 -0.00    +0.001 A  
DOCKED: ATOM     18  C   UNL     1       4.771  22.045  14.918 -0.33 -0.00    +0.008 A  
DOCKED: ATOM     19  C   UNL     1       5.896  22.456  15.641 -0.24 +0.01    -0.022 A  
DOCKED: ATOM     20  C   UNL     1       7.115  21.646  15.626 -0.29 -0.00    +0.012 C  
DOCKED: ENDBRANCH  10  11
DOCKED: TORSDOF 1
DOCKED: TER
DOCKED: ENDMDL
________________________________________________________________________________


    FINAL DOCKED STATE:
    ________________________


Run:   37 / 50
Time taken for this run:   0.000s

DOCKED: MODEL        37
DOCKED: USER    Run = 37
DOCKED: USER
DOCKED: USER    Estimated Free Energy of Binding    =  -5.07 kcal/mol  [=(1)+(2)+(3)-(4)]
DOCKED: USER
DOCKED: USER    (1) Final Intermolecular Energy     =  -5.37 kcal/mol
DOCKED: USER        vdW + Hbond + desolv Energy     =  -5.37 kcal/mol
DOCKED: USER        Electrostatic Energy            =  +0.01 kcal/mol
DOCKED: USER        Moving Ligand-Fixed Receptor    =  -5.37 kcal/mol
DOCKED: USER        Moving Ligand-Moving Receptor   =  +0.00 kcal/mol
DOCKED: USER    (2) Final Total Internal Energy     =  -0.44 kcal/mol
DOCKED: USER    (3) Torsional Free Energy           =  +0.30 kcal/mol
DOCKED: USER    (4) Unbound System's Energy         =  -0.44 kcal/mol
DOCKED: USER
DOCKED: USER
DOCKED: REMARK  Name = 
DOCKED: REMARK  2 active torsions:
DOCKED: REMARK  status: ('A' for Active; 'I' for Inactive)
DOCKED: REMARK    1  A    between atoms: C_8  and  C_9
DOCKED: REMARK    2  A    between atoms: C_10  and  C_11
DOCKED: REMARK                            x       y       z     vdW  Elec       q    Type
DOCKED: REMARK                         _______ _______ _______ _____ _____    ______ ____
DOCKED: USER                              x       y       z     vdW  Elec       q    Type
DOCKED: USER                           _______ _______ _______ _____ _____    ______ ____
DOCKED: ROOT
DOCKED: ATOM      1  C   UNL     1      13.038  21.367  16.639 -0.34 -0.01    +0.049 C  
DOCKED: ATOM      2  C   UNL     1      13.170  22.792  17.143 -0.29 +0.00    -0.004 C  
DOCKED: ATOM      3  C   UNL     1      11.964  23.705  17.027 -0.24 +0.00    +0.004 C  
DOCKED: ATOM      4  C   UNL     1      11.156  23.391  15.762 -0.36 +0.00    +0.012 C  
DOCKED: ATOM      5  C   UNL     1      10.798  21.900  15.646 -0.27 -0.00    +0.063 C  
DOCKED: ATOM      6  C   UNL     1      11.552  21.073  16.694 -0.25 -0.02    +0.181 C  
DOCKED: ATOM      7  O   UNL     1      11.046  19.747  16.552 -0.11 +0.07    -0.492 OA 
DOCKED: ATOM      8  C   UNL     1       9.672  20.119  16.522 -0.30 -0.01    +0.099 C  
DOCKED: ATOM      9  C   UNL     1       8.734  19.273  17.311 -0.22 -0.01    +0.086 C  
DOCKED: ATOM     10  C   UNL     1       9.455  21.346  16.012 -0.35 +0.00    -0.000 C  
DOCKED: ENDROOT
DOCKED: BRANCH  10  11
DOCKED: ATOM     11  C   UNL     1       8.267  22.149  16.097 -0.34 +0.01    -0.040 C  
DOCKED: ATOM     12  C   UNL     1       8.365  23.507  16.742 -0.27 -0.02    +0.040 C  
DOCKED: ATOM     13  C   UNL     1       7.034  23.990  17.335 -0.21 -0.03    +0.040 C  
DOCKED: ATOM     14  C   UNL     1       5.842  23.641  16.469 -0.23 +0.02    -0.040 A  
DOCKED: ATOM     15  C   UNL     1       4.672  24.411  16.504 -0.21 -0.00    +0.004 A  
DOCKED: ATOM     16  C   UNL     1       3.562  24.038  15.745 -0.21 -0.00    +0.000 A  
DOCKED: ATOM     17  C   UNL     1       3.603  22.884  14.963 -0.29 -0.00    +0.001 A  
DOCKED: ATOM     18  C   UNL     1       4.759  22.104  14.935 -0.33 -0.00    +0.008 A  
DOCKED: ATOM     19  C   UNL     1       5.883  22.483  15.676 -0.24 +0.01    -0.022 A  
DOCKED: ATOM     20  C   UNL     1       7.100  21.671  15.632 -0.30 -0.00    +0.012 C  
DOCKED: ENDBRANCH  10  11
DOCKED: TORSDOF 1
DOCKED: TER
DOCKED: ENDMDL
________________________________________________________________________________


    FINAL DOCKED STATE:
    ________________________


Run:   38 / 50
Time taken for this run:   0.000s

DOCKED: MODEL        38
DOCKED: USER    Run = 38
DOCKED: USER
DOCKED: USER    Estimated Free Energy of Binding    =  -5.07 kcal/mol  [=(1)+(2)+(3)-(4)]
DOCKED: USER
DOCKED: USER    (1) Final Intermolecular Energy     =  -5.37 kcal/mol
DOCKED: USER        vdW + Hbond + desolv Energy     =  -5.37 kcal/mol
DOCKED: USER        Electrostatic Energy            =  +0.01 kcal/mol
DOCKED: USER        Moving Ligand-Fixed Receptor    =  -5.37 kcal/mol
DOCKED: USER        Moving Ligand-Moving Receptor   =  +0.00 kcal/mol
DOCKED: USER    (2) Final Total Internal Energy     =  -0.44 kcal/mol
DOCKED: USER    (3) Torsional Free Energy           =  +0.30 kcal/mol
DOCKED: USER    (4) Unbound System's Energy         =  -0.44 kcal/mol
DOCKED: USER
DOCKED: USER
DOCKED: REMARK  Name = 
DOCKED: REMARK  2 active torsions:
DOCKED: REMARK  status: ('A' for Active; 'I' for Inactive)
DOCKED: REMARK    1  A    between atoms: C_8  and  C_9
DOCKED: REMARK    2  A    between atoms: C_10  and  C_11
DOCKED: REMARK                            x       y       z     vdW  Elec       q    Type
DOCKED: REMARK                         _______ _______ _______ _____ _____    ______ ____
DOCKED: USER                              x       y       z     vdW  Elec       q    Type
DOCKED: USER                           _______ _______ _______ _____ _____    ______ ____
DOCKED: ROOT
DOCKED: ATOM      1  C   UNL     1      13.059  21.382  16.638 -0.34 -0.01    +0.049 C  
DOCKED: ATOM      2  C   UNL     1      13.187  22.807  17.142 -0.29 +0.00    -0.004 C  
DOCKED: ATOM      3  C   UNL     1      11.978  23.717  17.027 -0.24 +0.00    +0.004 C  
DOCKED: ATOM      4  C   UNL     1      11.170  23.401  15.763 -0.36 +0.00    +0.012 C  
DOCKED: ATOM      5  C   UNL     1      10.817  21.909  15.646 -0.27 -0.00    +0.063 C  
DOCKED: ATOM      6  C   UNL     1      11.575  21.084  16.693 -0.25 -0.02    +0.181 C  
DOCKED: ATOM      7  O   UNL     1      11.071  19.757  16.551 -0.11 +0.07    -0.492 OA 
DOCKED: ATOM      8  C   UNL     1       9.696  20.124  16.522 -0.30 -0.01    +0.099 C  
DOCKED: ATOM      9  C   UNL     1       8.762  19.275  17.311 -0.22 -0.01    +0.086 C  
DOCKED: ATOM     10  C   UNL     1       9.476  21.350  16.013 -0.35 +0.00    -0.000 C  
DOCKED: ENDROOT
DOCKED: BRANCH  10  11
DOCKED: ATOM     11  C   UNL     1       8.286  22.150  16.099 -0.34 +0.01    -0.040 C  
DOCKED: ATOM     12  C   UNL     1       8.380  23.507  16.747 -0.27 -0.02    +0.040 C  
DOCKED: ATOM     13  C   UNL     1       7.047  23.985  17.340 -0.21 -0.03    +0.040 C  
DOCKED: ATOM     14  C   UNL     1       5.857  23.635  16.474 -0.23 +0.02    -0.040 A  
DOCKED: ATOM     15  C   UNL     1       4.684  24.401  16.510 -0.21 -0.00    +0.004 A  
DOCKED: ATOM     16  C   UNL     1       3.576  24.026  15.750 -0.21 -0.00    +0.000 A  
DOCKED: ATOM     17  C   UNL     1       3.620  22.875  14.965 -0.29 -0.00    +0.001 A  
DOCKED: ATOM     18  C   UNL     1       4.778  22.098  14.936 -0.33 -0.00    +0.008 A  
DOCKED: ATOM     19  C   UNL     1       5.901  22.479  15.678 -0.24 +0.01    -0.022 A  
DOCKED: ATOM     20  C   UNL     1       7.120  21.670  15.633 -0.30 -0.00    +0.012 C  
DOCKED: ENDBRANCH  10  11
DOCKED: TORSDOF 1
DOCKED: TER
DOCKED: ENDMDL
________________________________________________________________________________


    FINAL DOCKED STATE:
    ________________________


Run:   39 / 50
Time taken for this run:   0.000s

DOCKED: MODEL        39
DOCKED: USER    Run = 39
DOCKED: USER
DOCKED: USER    Estimated Free Energy of Binding    =  -4.86 kcal/mol  [=(1)+(2)+(3)-(4)]
DOCKED: USER
DOCKED: USER    (1) Final Intermolecular Energy     =  -5.15 kcal/mol
DOCKED: USER        vdW + Hbond + desolv Energy     =  -5.18 kcal/mol
DOCKED: USER        Electrostatic Energy            =  +0.03 kcal/mol
DOCKED: USER        Moving Ligand-Fixed Receptor    =  -5.15 kcal/mol
DOCKED: USER        Moving Ligand-Moving Receptor   =  +0.00 kcal/mol
DOCKED: USER    (2) Final Total Internal Energy     =  -0.55 kcal/mol
DOCKED: USER    (3) Torsional Free Energy           =  +0.30 kcal/mol
DOCKED: USER    (4) Unbound System's Energy         =  -0.55 kcal/mol
DOCKED: USER
DOCKED: USER
DOCKED: REMARK  Name = 
DOCKED: REMARK  2 active torsions:
DOCKED: REMARK  status: ('A' for Active; 'I' for Inactive)
DOCKED: REMARK    1  A    between atoms: C_8  and  C_9
DOCKED: REMARK    2  A    between atoms: C_10  and  C_11
DOCKED: REMARK                            x       y       z     vdW  Elec       q    Type
DOCKED: REMARK                         _______ _______ _______ _____ _____    ______ ____
DOCKED: USER                              x       y       z     vdW  Elec       q    Type
DOCKED: USER                           _______ _______ _______ _____ _____    ______ ____
DOCKED: ROOT
DOCKED: ATOM      1  C   UNL     1       7.480  18.887  16.438 -0.27 -0.00    +0.049 C  
DOCKED: ATOM      2  C   UNL     1       8.227  18.101  17.499 -0.21 +0.00    -0.004 C  
DOCKED: ATOM      3  C   UNL     1       9.679  18.456  17.760 -0.26 -0.00    +0.004 C  
DOCKED: ATOM      4  C   UNL     1      10.379  18.891  16.467 -0.35 -0.00    +0.012 C  
DOCKED: ATOM      5  C   UNL     1       9.612  19.997  15.724 -0.38 -0.01    +0.063 C  
DOCKED: ATOM      6  C   UNL     1       8.222  20.204  16.337 -0.25 -0.03    +0.181 C  
DOCKED: ATOM      7  O   UNL     1       7.673  21.320  15.638 -0.15 +0.13    -0.492 OA 
DOCKED: ATOM      8  C   UNL     1       8.831  22.142  15.744 -0.34 -0.02    +0.099 C  
DOCKED: ATOM      9  C   UNL     1       8.605  23.573  16.085 -0.27 -0.03    +0.086 C  
DOCKED: ATOM     10  C   UNL     1       9.983  21.447  15.798 -0.26 +0.00    -0.000 C  
DOCKED: ENDROOT
DOCKED: BRANCH  10  11
DOCKED: ATOM     11  C   UNL     1      11.284  21.909  16.194 -0.34 +0.00    -0.040 C  
DOCKED: ATOM     12  C   UNL     1      12.492  21.299  15.531 -0.47 -0.00    +0.040 C  
DOCKED: ATOM     13  C   UNL     1      13.755  21.367  16.401 -0.30 -0.01    +0.040 C  
DOCKED: ATOM     14  C   UNL     1      13.878  22.671  17.160 -0.26 +0.00    -0.040 A  
DOCKED: ATOM     15  C   UNL     1      15.130  23.169  17.546 -0.28 -0.00    +0.004 A  
DOCKED: ATOM     16  C   UNL     1      15.219  24.341  18.299 -0.16 -0.00    +0.000 A  
DOCKED: ATOM     17  C   UNL     1      14.062  25.012  18.690 -0.10 -0.00    +0.001 A  
DOCKED: ATOM     18  C   UNL     1      12.811  24.515  18.324 -0.13 -0.00    +0.008 A  
DOCKED: ATOM     19  C   UNL     1      12.714  23.352  17.551 -0.18 +0.00    -0.022 A  
DOCKED: ATOM     20  C   UNL     1      11.402  22.841  17.154 -0.24 -0.00    +0.012 C  
DOCKED: ENDBRANCH  10  11
DOCKED: TORSDOF 1
DOCKED: TER
DOCKED: ENDMDL
________________________________________________________________________________


    FINAL DOCKED STATE:
    ________________________


Run:   40 / 50
Time taken for this run:   0.000s

DOCKED: MODEL        40
DOCKED: USER    Run = 40
DOCKED: USER
DOCKED: USER    Estimated Free Energy of Binding    =  -5.09 kcal/mol  [=(1)+(2)+(3)-(4)]
DOCKED: USER
DOCKED: USER    (1) Final Intermolecular Energy     =  -5.39 kcal/mol
DOCKED: USER        vdW + Hbond + desolv Energy     =  -5.39 kcal/mol
DOCKED: USER        Electrostatic Energy            =  +0.01 kcal/mol
DOCKED: USER        Moving Ligand-Fixed Receptor    =  -5.39 kcal/mol
DOCKED: USER        Moving Ligand-Moving Receptor   =  +0.00 kcal/mol
DOCKED: USER    (2) Final Total Internal Energy     =  -0.42 kcal/mol
DOCKED: USER    (3) Torsional Free Energy           =  +0.30 kcal/mol
DOCKED: USER    (4) Unbound System's Energy         =  -0.42 kcal/mol
DOCKED: USER
DOCKED: USER
DOCKED: REMARK  Name = 
DOCKED: REMARK  2 active torsions:
DOCKED: REMARK  status: ('A' for Active; 'I' for Inactive)
DOCKED: REMARK    1  A    between atoms: C_8  and  C_9
DOCKED: REMARK    2  A    between atoms: C_10  and  C_11
DOCKED: REMARK                            x       y       z     vdW  Elec       q    Type
DOCKED: REMARK                         _______ _______ _______ _____ _____    ______ ____
DOCKED: USER                              x       y       z     vdW  Elec       q    Type
DOCKED: USER                           _______ _______ _______ _____ _____    ______ ____
DOCKED: ROOT
DOCKED: ATOM      1  C   UNL     1      13.046  21.367  16.664 -0.34 -0.01    +0.049 C  
DOCKED: ATOM      2  C   UNL     1      13.171  22.806  17.129 -0.29 +0.00    -0.004 C  
DOCKED: ATOM      3  C   UNL     1      11.963  23.712  16.978 -0.24 +0.00    +0.004 C  
DOCKED: ATOM      4  C   UNL     1      11.166  23.361  15.716 -0.37 +0.00    +0.012 C  
DOCKED: ATOM      5  C   UNL     1      10.813  21.866  15.639 -0.27 -0.00    +0.063 C  
DOCKED: ATOM      6  C   UNL     1      11.561  21.071  16.715 -0.24 -0.02    +0.181 C  
DOCKED: ATOM      7  O   UNL     1      11.059  19.740  16.606 -0.10 +0.07    -0.492 OA 
DOCKED: ATOM      8  C   UNL     1       9.684  20.107  16.555 -0.30 -0.01    +0.099 C  
DOCKED: ATOM      9  C   UNL     1       8.743  19.281  17.360 -0.21 -0.01    +0.086 C  
DOCKED: ATOM     10  C   UNL     1       9.469  21.319  16.009 -0.35 +0.00    -0.000 C  
DOCKED: ENDROOT
DOCKED: BRANCH  10  11
DOCKED: ATOM     11  C   UNL     1       8.278  22.121  16.062 -0.34 +0.01    -0.040 C  
DOCKED: ATOM     12  C   UNL     1       8.375  23.508  16.641 -0.28 -0.02    +0.040 C  
DOCKED: ATOM     13  C   UNL     1       7.045  24.015  17.218 -0.21 -0.03    +0.040 C  
DOCKED: ATOM     14  C   UNL     1       5.850  23.621  16.377 -0.24 +0.02    -0.040 A  
DOCKED: ATOM     15  C   UNL     1       4.677  24.387  16.381 -0.23 -0.00    +0.004 A  
DOCKED: ATOM     16  C   UNL     1       3.564  23.974  15.647 -0.22 -0.00    +0.000 A  
DOCKED: ATOM     17  C   UNL     1       3.605  22.784  14.921 -0.29 -0.00    +0.001 A  
DOCKED: ATOM     18  C   UNL     1       4.764  22.008  14.924 -0.33 -0.00    +0.008 A  
DOCKED: ATOM     19  C   UNL     1       5.891  22.426  15.640 -0.25 +0.01    -0.022 A  
DOCKED: ATOM     20  C   UNL     1       7.110  21.617  15.628 -0.29 -0.00    +0.012 C  
DOCKED: ENDBRANCH  10  11
DOCKED: TORSDOF 1
DOCKED: TER
DOCKED: ENDMDL
________________________________________________________________________________


    FINAL DOCKED STATE:
    ________________________


Run:   41 / 50
Time taken for this run:   0.000s

DOCKED: MODEL        41
DOCKED: USER    Run = 41
DOCKED: USER
DOCKED: USER    Estimated Free Energy of Binding    =  -5.06 kcal/mol  [=(1)+(2)+(3)-(4)]
DOCKED: USER
DOCKED: USER    (1) Final Intermolecular Energy     =  -5.36 kcal/mol
DOCKED: USER        vdW + Hbond + desolv Energy     =  -5.37 kcal/mol
DOCKED: USER        Electrostatic Energy            =  +0.01 kcal/mol
DOCKED: USER        Moving Ligand-Fixed Receptor    =  -5.36 kcal/mol
DOCKED: USER        Moving Ligand-Moving Receptor   =  +0.00 kcal/mol
DOCKED: USER    (2) Final Total Internal Energy     =  -0.43 kcal/mol
DOCKED: USER    (3) Torsional Free Energy           =  +0.30 kcal/mol
DOCKED: USER    (4) Unbound System's Energy         =  -0.43 kcal/mol
DOCKED: USER
DOCKED: USER
DOCKED: REMARK  Name = 
DOCKED: REMARK  2 active torsions:
DOCKED: REMARK  status: ('A' for Active; 'I' for Inactive)
DOCKED: REMARK    1  A    between atoms: C_8  and  C_9
DOCKED: REMARK    2  A    between atoms: C_10  and  C_11
DOCKED: REMARK                            x       y       z     vdW  Elec       q    Type
DOCKED: REMARK                         _______ _______ _______ _____ _____    ______ ____
DOCKED: USER                              x       y       z     vdW  Elec       q    Type
DOCKED: USER                           _______ _______ _______ _____ _____    ______ ____
DOCKED: ROOT
DOCKED: ATOM      1  C   UNL     1      13.070  21.362  16.641 -0.34 -0.01    +0.049 C  
DOCKED: ATOM      2  C   UNL     1      13.203  22.779  17.168 -0.29 +0.00    -0.004 C  
DOCKED: ATOM      3  C   UNL     1      11.997  23.695  17.065 -0.24 +0.00    +0.004 C  
DOCKED: ATOM      4  C   UNL     1      11.192  23.402  15.794 -0.35 +0.00    +0.012 C  
DOCKED: ATOM      5  C   UNL     1      10.833  21.914  15.652 -0.28 -0.00    +0.063 C  
DOCKED: ATOM      6  C   UNL     1      11.585  21.070  16.688 -0.25 -0.02    +0.181 C  
DOCKED: ATOM      7  O   UNL     1      11.077  19.746  16.523 -0.11 +0.07    -0.492 OA 
DOCKED: ATOM      8  C   UNL     1       9.703  20.119  16.496 -0.31 -0.01    +0.099 C  
DOCKED: ATOM      9  C   UNL     1       8.764  19.261  17.269 -0.22 -0.01    +0.086 C  
DOCKED: ATOM     10  C   UNL     1       9.489  21.355  16.006 -0.35 +0.00    -0.000 C  
DOCKED: ENDROOT
DOCKED: BRANCH  10  11
DOCKED: ATOM     11  C   UNL     1       8.301  22.157  16.102 -0.34 +0.01    -0.040 C  
DOCKED: ATOM     12  C   UNL     1       8.402  23.508  16.761 -0.27 -0.02    +0.040 C  
DOCKED: ATOM     13  C   UNL     1       7.072  23.986  17.362 -0.21 -0.03    +0.040 C  
DOCKED: ATOM     14  C   UNL     1       5.878  23.647  16.495 -0.23 +0.02    -0.040 A  
DOCKED: ATOM     15  C   UNL     1       4.708  24.416  16.541 -0.21 -0.00    +0.004 A  
DOCKED: ATOM     16  C   UNL     1       3.597  24.051  15.780 -0.21 -0.00    +0.000 A  
DOCKED: ATOM     17  C   UNL     1       3.635  22.906  14.986 -0.29 -0.00    +0.001 A  
DOCKED: ATOM     18  C   UNL     1       4.791  22.126  14.948 -0.33 -0.00    +0.008 A  
DOCKED: ATOM     19  C   UNL     1       5.917  22.497  15.690 -0.24 +0.01    -0.022 A  
DOCKED: ATOM     20  C   UNL     1       7.133  21.685  15.635 -0.31 -0.00    +0.012 C  
DOCKED: ENDBRANCH  10  11
DOCKED: TORSDOF 1
DOCKED: TER
DOCKED: ENDMDL
________________________________________________________________________________


    FINAL DOCKED STATE:
    ________________________


Run:   42 / 50
Time taken for this run:   0.000s

DOCKED: MODEL        42
DOCKED: USER    Run = 42
DOCKED: USER
DOCKED: USER    Estimated Free Energy of Binding    =  -4.85 kcal/mol  [=(1)+(2)+(3)-(4)]
DOCKED: USER
DOCKED: USER    (1) Final Intermolecular Energy     =  -5.14 kcal/mol
DOCKED: USER        vdW + Hbond + desolv Energy     =  -5.17 kcal/mol
DOCKED: USER        Electrostatic Energy            =  +0.03 kcal/mol
DOCKED: USER        Moving Ligand-Fixed Receptor    =  -5.14 kcal/mol
DOCKED: USER        Moving Ligand-Moving Receptor   =  +0.00 kcal/mol
DOCKED: USER    (2) Final Total Internal Energy     =  -0.57 kcal/mol
DOCKED: USER    (3) Torsional Free Energy           =  +0.30 kcal/mol
DOCKED: USER    (4) Unbound System's Energy         =  -0.57 kcal/mol
DOCKED: USER
DOCKED: USER
DOCKED: REMARK  Name = 
DOCKED: REMARK  2 active torsions:
DOCKED: REMARK  status: ('A' for Active; 'I' for Inactive)
DOCKED: REMARK    1  A    between atoms: C_8  and  C_9
DOCKED: REMARK    2  A    between atoms: C_10  and  C_11
DOCKED: REMARK                            x       y       z     vdW  Elec       q    Type
DOCKED: REMARK                         _______ _______ _______ _____ _____    ______ ____
DOCKED: USER                              x       y       z     vdW  Elec       q    Type
DOCKED: USER                           _______ _______ _______ _____ _____    ______ ____
DOCKED: ROOT
DOCKED: ATOM      1  C   UNL     1       7.459  18.861  16.477 -0.27 -0.00    +0.049 C  
DOCKED: ATOM      2  C   UNL     1       8.203  18.100  17.558 -0.21 +0.00    -0.004 C  
DOCKED: ATOM      3  C   UNL     1       9.653  18.461  17.816 -0.25 -0.00    +0.004 C  
DOCKED: ATOM      4  C   UNL     1      10.359  18.869  16.517 -0.34 -0.00    +0.012 C  
DOCKED: ATOM      5  C   UNL     1       9.593  19.958  15.747 -0.39 -0.01    +0.063 C  
DOCKED: ATOM      6  C   UNL     1       8.200  20.176  16.350 -0.25 -0.03    +0.181 C  
DOCKED: ATOM      7  O   UNL     1       7.654  21.277  15.625 -0.15 +0.13    -0.492 OA 
DOCKED: ATOM      8  C   UNL     1       8.810  22.102  15.717 -0.34 -0.02    +0.099 C  
DOCKED: ATOM      9  C   UNL     1       8.582  23.540  16.025 -0.27 -0.03    +0.086 C  
DOCKED: ATOM     10  C   UNL     1       9.962  21.409  15.790 -0.26 +0.00    -0.000 C  
DOCKED: ENDROOT
DOCKED: BRANCH  10  11
DOCKED: ATOM     11  C   UNL     1      11.262  21.880  16.181 -0.34 +0.00    -0.040 C  
DOCKED: ATOM     12  C   UNL     1      12.471  21.298  15.496 -0.47 -0.00    +0.040 C  
DOCKED: ATOM     13  C   UNL     1      13.742  21.367  16.354 -0.30 -0.01    +0.040 C  
DOCKED: ATOM     14  C   UNL     1      13.856  22.659  17.134 -0.26 +0.00    -0.040 A  
DOCKED: ATOM     15  C   UNL     1      15.105  23.166  17.516 -0.28 -0.00    +0.004 A  
DOCKED: ATOM     16  C   UNL     1      15.187  24.326  18.288 -0.16 -0.00    +0.000 A  
DOCKED: ATOM     17  C   UNL     1      14.026  24.976  18.702 -0.10 -0.00    +0.001 A  
DOCKED: ATOM     18  C   UNL     1      12.778  24.469  18.340 -0.13 -0.00    +0.008 A  
DOCKED: ATOM     19  C   UNL     1      12.688  23.319  17.548 -0.19 +0.00    -0.022 A  
DOCKED: ATOM     20  C   UNL     1      11.378  22.798  17.156 -0.24 -0.00    +0.012 C  
DOCKED: ENDBRANCH  10  11
DOCKED: TORSDOF 1
DOCKED: TER
DOCKED: ENDMDL
________________________________________________________________________________


    FINAL DOCKED STATE:
    ________________________


Run:   43 / 50
Time taken for this run:   0.000s

DOCKED: MODEL        43
DOCKED: USER    Run = 43
DOCKED: USER
DOCKED: USER    Estimated Free Energy of Binding    =  -5.06 kcal/mol  [=(1)+(2)+(3)-(4)]
DOCKED: USER
DOCKED: USER    (1) Final Intermolecular Energy     =  -5.36 kcal/mol
DOCKED: USER        vdW + Hbond + desolv Energy     =  -5.37 kcal/mol
DOCKED: USER        Electrostatic Energy            =  +0.01 kcal/mol
DOCKED: USER        Moving Ligand-Fixed Receptor    =  -5.36 kcal/mol
DOCKED: USER        Moving Ligand-Moving Receptor   =  +0.00 kcal/mol
DOCKED: USER    (2) Final Total Internal Energy     =  -0.45 kcal/mol
DOCKED: USER    (3) Torsional Free Energy           =  +0.30 kcal/mol
DOCKED: USER    (4) Unbound System's Energy         =  -0.45 kcal/mol
DOCKED: USER
DOCKED: USER
DOCKED: REMARK  Name = 
DOCKED: REMARK  2 active torsions:
DOCKED: REMARK  status: ('A' for Active; 'I' for Inactive)
DOCKED: REMARK    1  A    between atoms: C_8  and  C_9
DOCKED: REMARK    2  A    between atoms: C_10  and  C_11
DOCKED: REMARK                            x       y       z     vdW  Elec       q    Type
DOCKED: REMARK                         _______ _______ _______ _____ _____    ______ ____
DOCKED: USER                              x       y       z     vdW  Elec       q    Type
DOCKED: USER                           _______ _______ _______ _____ _____    ______ ____
DOCKED: ROOT
DOCKED: ATOM      1  C   UNL     1      13.063  21.373  16.641 -0.34 -0.01    +0.049 C  
DOCKED: ATOM      2  C   UNL     1      13.190  22.803  17.133 -0.29 +0.00    -0.004 C  
DOCKED: ATOM      3  C   UNL     1      11.980  23.710  17.012 -0.24 +0.00    +0.004 C  
DOCKED: ATOM      4  C   UNL     1      11.172  23.383  15.750 -0.36 +0.00    +0.012 C  
DOCKED: ATOM      5  C   UNL     1      10.820  21.890  15.646 -0.27 -0.00    +0.063 C  
DOCKED: ATOM      6  C   UNL     1      11.579  21.075  16.700 -0.25 -0.02    +0.181 C  
DOCKED: ATOM      7  O   UNL     1      11.077  19.746  16.569 -0.11 +0.07    -0.492 OA 
DOCKED: ATOM      8  C   UNL     1       9.702  20.111  16.538 -0.30 -0.01    +0.099 C  
DOCKED: ATOM      9  C   UNL     1       8.769  19.268  17.335 -0.22 -0.01    +0.086 C  
DOCKED: ATOM     10  C   UNL     1       9.480  21.333  16.019 -0.35 +0.00    -0.000 C  
DOCKED: ENDROOT
DOCKED: BRANCH  10  11
DOCKED: ATOM     11  C   UNL     1       8.289  22.132  16.099 -0.34 +0.01    -0.040 C  
DOCKED: ATOM     12  C   UNL     1       8.378  23.488  16.749 -0.27 -0.02    +0.040 C  
DOCKED: ATOM     13  C   UNL     1       7.042  23.965  17.335 -0.21 -0.03    +0.040 C  
DOCKED: ATOM     14  C   UNL     1       5.857  23.616  16.461 -0.23 +0.02    -0.040 A  
DOCKED: ATOM     15  C   UNL     1       4.684  24.382  16.491 -0.21 -0.00    +0.004 A  
DOCKED: ATOM     16  C   UNL     1       3.580  24.007  15.723 -0.22 -0.00    +0.000 A  
DOCKED: ATOM     17  C   UNL     1       3.630  22.857  14.937 -0.29 -0.00    +0.001 A  
DOCKED: ATOM     18  C   UNL     1       4.788  22.081  14.914 -0.33 -0.00    +0.008 A  
DOCKED: ATOM     19  C   UNL     1       5.906  22.461  15.664 -0.24 +0.01    -0.022 A  
DOCKED: ATOM     20  C   UNL     1       7.126  21.652  15.625 -0.29 -0.00    +0.012 C  
DOCKED: ENDBRANCH  10  11
DOCKED: TORSDOF 1
DOCKED: TER
DOCKED: ENDMDL
________________________________________________________________________________


    FINAL DOCKED STATE:
    ________________________


Run:   44 / 50
Time taken for this run:   0.000s

DOCKED: MODEL        44
DOCKED: USER    Run = 44
DOCKED: USER
DOCKED: USER    Estimated Free Energy of Binding    =  -5.07 kcal/mol  [=(1)+(2)+(3)-(4)]
DOCKED: USER
DOCKED: USER    (1) Final Intermolecular Energy     =  -5.36 kcal/mol
DOCKED: USER        vdW + Hbond + desolv Energy     =  -5.37 kcal/mol
DOCKED: USER        Electrostatic Energy            =  +0.01 kcal/mol
DOCKED: USER        Moving Ligand-Fixed Receptor    =  -5.36 kcal/mol
DOCKED: USER        Moving Ligand-Moving Receptor   =  +0.00 kcal/mol
DOCKED: USER    (2) Final Total Internal Energy     =  -0.44 kcal/mol
DOCKED: USER    (3) Torsional Free Energy           =  +0.30 kcal/mol
DOCKED: USER    (4) Unbound System's Energy         =  -0.44 kcal/mol
DOCKED: USER
DOCKED: USER
DOCKED: REMARK  Name = 
DOCKED: REMARK  2 active torsions:
DOCKED: REMARK  status: ('A' for Active; 'I' for Inactive)
DOCKED: REMARK    1  A    between atoms: C_8  and  C_9
DOCKED: REMARK    2  A    between atoms: C_10  and  C_11
DOCKED: REMARK                            x       y       z     vdW  Elec       q    Type
DOCKED: REMARK                         _______ _______ _______ _____ _____    ______ ____
DOCKED: USER                              x       y       z     vdW  Elec       q    Type
DOCKED: USER                           _______ _______ _______ _____ _____    ______ ____
DOCKED: ROOT
DOCKED: ATOM      1  C   UNL     1      13.066  21.379  16.645 -0.34 -0.01    +0.049 C  
DOCKED: ATOM      2  C   UNL     1      13.192  22.799  17.166 -0.29 +0.00    -0.004 C  
DOCKED: ATOM      3  C   UNL     1      11.984  23.710  17.058 -0.24 +0.00    +0.004 C  
DOCKED: ATOM      4  C   UNL     1      11.180  23.408  15.787 -0.35 +0.00    +0.012 C  
DOCKED: ATOM      5  C   UNL     1      10.828  21.918  15.651 -0.28 -0.00    +0.063 C  
DOCKED: ATOM      6  C   UNL     1      11.581  21.081  16.691 -0.25 -0.02    +0.181 C  
DOCKED: ATOM      7  O   UNL     1      11.079  19.755  16.532 -0.11 +0.07    -0.492 OA 
DOCKED: ATOM      8  C   UNL     1       9.704  20.123  16.502 -0.31 -0.01    +0.099 C  
DOCKED: ATOM      9  C   UNL     1       8.766  19.265  17.278 -0.22 -0.01    +0.086 C  
DOCKED: ATOM     10  C   UNL     1       9.485  21.355  16.006 -0.35 +0.00    -0.000 C  
DOCKED: ENDROOT
DOCKED: BRANCH  10  11
DOCKED: ATOM     11  C   UNL     1       8.295  22.154  16.097 -0.34 +0.01    -0.040 C  
DOCKED: ATOM     12  C   UNL     1       8.388  23.507  16.753 -0.27 -0.02    +0.040 C  
DOCKED: ATOM     13  C   UNL     1       7.055  23.981  17.349 -0.21 -0.03    +0.040 C  
DOCKED: ATOM     14  C   UNL     1       5.865  23.635  16.481 -0.23 +0.02    -0.040 A  
DOCKED: ATOM     15  C   UNL     1       4.692  24.401  16.521 -0.21 -0.00    +0.004 A  
DOCKED: ATOM     16  C   UNL     1       3.584  24.030  15.759 -0.21 -0.00    +0.000 A  
DOCKED: ATOM     17  C   UNL     1       3.628  22.883  14.968 -0.29 -0.00    +0.001 A  
DOCKED: ATOM     18  C   UNL     1       4.787  22.107  14.934 -0.33 -0.00    +0.008 A  
DOCKED: ATOM     19  C   UNL     1       5.910  22.484  15.679 -0.24 +0.01    -0.022 A  
DOCKED: ATOM     20  C   UNL     1       7.129  21.676  15.629 -0.30 -0.00    +0.012 C  
DOCKED: ENDBRANCH  10  11
DOCKED: TORSDOF 1
DOCKED: TER
DOCKED: ENDMDL
________________________________________________________________________________


    FINAL DOCKED STATE:
    ________________________


Run:   45 / 50
Time taken for this run:   0.000s

DOCKED: MODEL        45
DOCKED: USER    Run = 45
DOCKED: USER
DOCKED: USER    Estimated Free Energy of Binding    =  -5.07 kcal/mol  [=(1)+(2)+(3)-(4)]
DOCKED: USER
DOCKED: USER    (1) Final Intermolecular Energy     =  -5.37 kcal/mol
DOCKED: USER        vdW + Hbond + desolv Energy     =  -5.37 kcal/mol
DOCKED: USER        Electrostatic Energy            =  +0.01 kcal/mol
DOCKED: USER        Moving Ligand-Fixed Receptor    =  -5.37 kcal/mol
DOCKED: USER        Moving Ligand-Moving Receptor   =  +0.00 kcal/mol
DOCKED: USER    (2) Final Total Internal Energy     =  -0.44 kcal/mol
DOCKED: USER    (3) Torsional Free Energy           =  +0.30 kcal/mol
DOCKED: USER    (4) Unbound System's Energy         =  -0.44 kcal/mol
DOCKED: USER
DOCKED: USER
DOCKED: REMARK  Name = 
DOCKED: REMARK  2 active torsions:
DOCKED: REMARK  status: ('A' for Active; 'I' for Inactive)
DOCKED: REMARK    1  A    between atoms: C_8  and  C_9
DOCKED: REMARK    2  A    between atoms: C_10  and  C_11
DOCKED: REMARK                            x       y       z     vdW  Elec       q    Type
DOCKED: REMARK                         _______ _______ _______ _____ _____    ______ ____
DOCKED: USER                              x       y       z     vdW  Elec       q    Type
DOCKED: USER                           _______ _______ _______ _____ _____    ______ ____
DOCKED: ROOT
DOCKED: ATOM      1  C   UNL     1      13.061  21.372  16.639 -0.34 -0.01    +0.049 C  
DOCKED: ATOM      2  C   UNL     1      13.191  22.797  17.146 -0.29 +0.00    -0.004 C  
DOCKED: ATOM      3  C   UNL     1      11.984  23.708  17.032 -0.24 +0.00    +0.004 C  
DOCKED: ATOM      4  C   UNL     1      11.176  23.396  15.767 -0.36 +0.00    +0.012 C  
DOCKED: ATOM      5  C   UNL     1      10.820  21.905  15.647 -0.27 -0.00    +0.063 C  
DOCKED: ATOM      6  C   UNL     1      11.576  21.077  16.693 -0.25 -0.02    +0.181 C  
DOCKED: ATOM      7  O   UNL     1      11.071  19.751  16.548 -0.11 +0.07    -0.492 OA 
DOCKED: ATOM      8  C   UNL     1       9.696  20.120  16.519 -0.31 -0.01    +0.099 C  
DOCKED: ATOM      9  C   UNL     1       8.760  19.272  17.306 -0.22 -0.01    +0.086 C  
DOCKED: ATOM     10  C   UNL     1       9.478  21.348  16.012 -0.35 +0.00    -0.000 C  
DOCKED: ENDROOT
DOCKED: BRANCH  10  11
DOCKED: ATOM     11  C   UNL     1       8.289  22.150  16.099 -0.34 +0.01    -0.040 C  
DOCKED: ATOM     12  C   UNL     1       8.385  23.505  16.749 -0.27 -0.02    +0.040 C  
DOCKED: ATOM     13  C   UNL     1       7.053  23.985  17.343 -0.21 -0.03    +0.040 C  
DOCKED: ATOM     14  C   UNL     1       5.863  23.638  16.475 -0.23 +0.02    -0.040 A  
DOCKED: ATOM     15  C   UNL     1       4.691  24.406  16.512 -0.21 -0.00    +0.004 A  
DOCKED: ATOM     16  C   UNL     1       3.582  24.034  15.751 -0.21 -0.00    +0.000 A  
DOCKED: ATOM     17  C   UNL     1       3.625  22.884  14.964 -0.29 -0.00    +0.001 A  
DOCKED: ATOM     18  C   UNL     1       4.782  22.105  14.934 -0.33 -0.00    +0.008 A  
DOCKED: ATOM     19  C   UNL     1       5.905  22.483  15.678 -0.24 +0.01    -0.022 A  
DOCKED: ATOM     20  C   UNL     1       7.123  21.672  15.632 -0.30 -0.00    +0.012 C  
DOCKED: ENDBRANCH  10  11
DOCKED: TORSDOF 1
DOCKED: TER
DOCKED: ENDMDL
________________________________________________________________________________


    FINAL DOCKED STATE:
    ________________________


Run:   46 / 50
Time taken for this run:   0.000s

DOCKED: MODEL        46
DOCKED: USER    Run = 46
DOCKED: USER
DOCKED: USER    Estimated Free Energy of Binding    =  -5.06 kcal/mol  [=(1)+(2)+(3)-(4)]
DOCKED: USER
DOCKED: USER    (1) Final Intermolecular Energy     =  -5.36 kcal/mol
DOCKED: USER        vdW + Hbond + desolv Energy     =  -5.37 kcal/mol
DOCKED: USER        Electrostatic Energy            =  +0.01 kcal/mol
DOCKED: USER        Moving Ligand-Fixed Receptor    =  -5.36 kcal/mol
DOCKED: USER        Moving Ligand-Moving Receptor   =  +0.00 kcal/mol
DOCKED: USER    (2) Final Total Internal Energy     =  -0.45 kcal/mol
DOCKED: USER    (3) Torsional Free Energy           =  +0.30 kcal/mol
DOCKED: USER    (4) Unbound System's Energy         =  -0.45 kcal/mol
DOCKED: USER
DOCKED: USER
DOCKED: REMARK  Name = 
DOCKED: REMARK  2 active torsions:
DOCKED: REMARK  status: ('A' for Active; 'I' for Inactive)
DOCKED: REMARK    1  A    between atoms: C_8  and  C_9
DOCKED: REMARK    2  A    between atoms: C_10  and  C_11
DOCKED: REMARK                            x       y       z     vdW  Elec       q    Type
DOCKED: REMARK                         _______ _______ _______ _____ _____    ______ ____
DOCKED: USER                              x       y       z     vdW  Elec       q    Type
DOCKED: USER                           _______ _______ _______ _____ _____    ______ ____
DOCKED: ROOT
DOCKED: ATOM      1  C   UNL     1      13.057  21.368  16.625 -0.34 -0.01    +0.049 C  
DOCKED: ATOM      2  C   UNL     1      13.188  22.794  17.129 -0.29 +0.00    -0.004 C  
DOCKED: ATOM      3  C   UNL     1      11.980  23.704  17.016 -0.24 +0.00    +0.004 C  
DOCKED: ATOM      4  C   UNL     1      11.170  23.389  15.752 -0.36 +0.00    +0.012 C  
DOCKED: ATOM      5  C   UNL     1      10.815  21.898  15.636 -0.27 -0.00    +0.063 C  
DOCKED: ATOM      6  C   UNL     1      11.573  21.072  16.682 -0.25 -0.02    +0.181 C  
DOCKED: ATOM      7  O   UNL     1      11.068  19.746  16.541 -0.11 +0.07    -0.492 OA 
DOCKED: ATOM      8  C   UNL     1       9.693  20.114  16.514 -0.31 -0.01    +0.099 C  
DOCKED: ATOM      9  C   UNL     1       8.758  19.267  17.304 -0.22 -0.01    +0.086 C  
DOCKED: ATOM     10  C   UNL     1       9.474  21.341  16.005 -0.35 +0.00    -0.000 C  
DOCKED: ENDROOT
DOCKED: BRANCH  10  11
DOCKED: ATOM     11  C   UNL     1       8.284  22.142  16.092 -0.34 +0.01    -0.040 C  
DOCKED: ATOM     12  C   UNL     1       8.378  23.493  16.753 -0.27 -0.02    +0.040 C  
DOCKED: ATOM     13  C   UNL     1       7.043  23.968  17.344 -0.21 -0.03    +0.040 C  
DOCKED: ATOM     14  C   UNL     1       5.856  23.628  16.468 -0.23 +0.02    -0.040 A  
DOCKED: ATOM     15  C   UNL     1       4.685  24.397  16.505 -0.21 -0.00    +0.004 A  
DOCKED: ATOM     16  C   UNL     1       3.580  24.031  15.735 -0.21 -0.00    +0.000 A  
DOCKED: ATOM     17  C   UNL     1       3.626  22.887  14.940 -0.29 -0.00    +0.001 A  
DOCKED: ATOM     18  C   UNL     1       4.782  22.108  14.910 -0.34 -0.00    +0.008 A  
DOCKED: ATOM     19  C   UNL     1       5.902  22.479  15.662 -0.24 +0.01    -0.022 A  
DOCKED: ATOM     20  C   UNL     1       7.120  21.669  15.616 -0.28 -0.00    +0.012 C  
DOCKED: ENDBRANCH  10  11
DOCKED: TORSDOF 1
DOCKED: TER
DOCKED: ENDMDL
________________________________________________________________________________


    FINAL DOCKED STATE:
    ________________________


Run:   47 / 50
Time taken for this run:   0.000s

DOCKED: MODEL        47
DOCKED: USER    Run = 47
DOCKED: USER
DOCKED: USER    Estimated Free Energy of Binding    =  -4.85 kcal/mol  [=(1)+(2)+(3)-(4)]
DOCKED: USER
DOCKED: USER    (1) Final Intermolecular Energy     =  -5.15 kcal/mol
DOCKED: USER        vdW + Hbond + desolv Energy     =  -5.18 kcal/mol
DOCKED: USER        Electrostatic Energy            =  +0.03 kcal/mol
DOCKED: USER        Moving Ligand-Fixed Receptor    =  -5.15 kcal/mol
DOCKED: USER        Moving Ligand-Moving Receptor   =  +0.00 kcal/mol
DOCKED: USER    (2) Final Total Internal Energy     =  -0.57 kcal/mol
DOCKED: USER    (3) Torsional Free Energy           =  +0.30 kcal/mol
DOCKED: USER    (4) Unbound System's Energy         =  -0.57 kcal/mol
DOCKED: USER
DOCKED: USER
DOCKED: REMARK  Name = 
DOCKED: REMARK  2 active torsions:
DOCKED: REMARK  status: ('A' for Active; 'I' for Inactive)
DOCKED: REMARK    1  A    between atoms: C_8  and  C_9
DOCKED: REMARK    2  A    between atoms: C_10  and  C_11
DOCKED: REMARK                            x       y       z     vdW  Elec       q    Type
DOCKED: REMARK                         _______ _______ _______ _____ _____    ______ ____
DOCKED: USER                              x       y       z     vdW  Elec       q    Type
DOCKED: USER                           _______ _______ _______ _____ _____    ______ ____
DOCKED: ROOT
DOCKED: ATOM      1  C   UNL     1       7.504  18.918  16.455 -0.27 -0.00    +0.049 C  
DOCKED: ATOM      2  C   UNL     1       8.243  18.145  17.531 -0.21 +0.00    -0.004 C  
DOCKED: ATOM      3  C   UNL     1       9.697  18.493  17.791 -0.25 -0.00    +0.004 C  
DOCKED: ATOM      4  C   UNL     1      10.404  18.903  16.493 -0.35 -0.00    +0.012 C  
DOCKED: ATOM      5  C   UNL     1       9.646  20.002  15.730 -0.38 -0.01    +0.063 C  
DOCKED: ATOM      6  C   UNL     1       8.256  20.228  16.335 -0.25 -0.03    +0.181 C  
DOCKED: ATOM      7  O   UNL     1       7.718  21.337  15.616 -0.15 +0.13    -0.492 OA 
DOCKED: ATOM      8  C   UNL     1       8.881  22.152  15.712 -0.34 -0.02    +0.099 C  
DOCKED: ATOM      9  C   UNL     1       8.664  23.591  16.029 -0.28 -0.03    +0.086 C  
DOCKED: ATOM     10  C   UNL     1      10.027  21.450  15.781 -0.26 +0.00    -0.000 C  
DOCKED: ENDROOT
DOCKED: BRANCH  10  11
DOCKED: ATOM     11  C   UNL     1      11.331  21.909  16.174 -0.35 +0.00    -0.040 C  
DOCKED: ATOM     12  C   UNL     1      12.535  21.309  15.496 -0.46 -0.00    +0.040 C  
DOCKED: ATOM     13  C   UNL     1      13.804  21.368  16.357 -0.29 -0.01    +0.040 C  
DOCKED: ATOM     14  C   UNL     1      13.931  22.663  17.131 -0.25 +0.00    -0.040 A  
DOCKED: ATOM     15  C   UNL     1      15.184  23.158  17.514 -0.29 -0.00    +0.004 A  
DOCKED: ATOM     16  C   UNL     1      15.277  24.321  18.280 -0.16 -0.00    +0.000 A  
DOCKED: ATOM     17  C   UNL     1      14.121  24.986  18.688 -0.10 -0.00    +0.001 A  
DOCKED: ATOM     18  C   UNL     1      12.869  24.491  18.324 -0.13 -0.00    +0.008 A  
DOCKED: ATOM     19  C   UNL     1      12.769  23.338  17.538 -0.19 +0.00    -0.022 A  
DOCKED: ATOM     20  C   UNL     1      11.454  22.830  17.144 -0.24 -0.00    +0.012 C  
DOCKED: ENDBRANCH  10  11
DOCKED: TORSDOF 1
DOCKED: TER
DOCKED: ENDMDL
________________________________________________________________________________


    FINAL DOCKED STATE:
    ________________________


Run:   48 / 50
Time taken for this run:   0.000s

DOCKED: MODEL        48
DOCKED: USER    Run = 48
DOCKED: USER
DOCKED: USER    Estimated Free Energy of Binding    =  -4.83 kcal/mol  [=(1)+(2)+(3)-(4)]
DOCKED: USER
DOCKED: USER    (1) Final Intermolecular Energy     =  -5.13 kcal/mol
DOCKED: USER        vdW + Hbond + desolv Energy     =  -5.16 kcal/mol
DOCKED: USER        Electrostatic Energy            =  +0.03 kcal/mol
DOCKED: USER        Moving Ligand-Fixed Receptor    =  -5.13 kcal/mol
DOCKED: USER        Moving Ligand-Moving Receptor   =  +0.00 kcal/mol
DOCKED: USER    (2) Final Total Internal Energy     =  -0.58 kcal/mol
DOCKED: USER    (3) Torsional Free Energy           =  +0.30 kcal/mol
DOCKED: USER    (4) Unbound System's Energy         =  -0.58 kcal/mol
DOCKED: USER
DOCKED: USER
DOCKED: REMARK  Name = 
DOCKED: REMARK  2 active torsions:
DOCKED: REMARK  status: ('A' for Active; 'I' for Inactive)
DOCKED: REMARK    1  A    between atoms: C_8  and  C_9
DOCKED: REMARK    2  A    between atoms: C_10  and  C_11
DOCKED: REMARK                            x       y       z     vdW  Elec       q    Type
DOCKED: REMARK                         _______ _______ _______ _____ _____    ______ ____
DOCKED: USER                              x       y       z     vdW  Elec       q    Type
DOCKED: USER                           _______ _______ _______ _____ _____    ______ ____
DOCKED: ROOT
DOCKED: ATOM      1  C   UNL     1       7.468  18.929  16.485 -0.27 -0.00    +0.049 C  
DOCKED: ATOM      2  C   UNL     1       8.202  18.163  17.569 -0.21 +0.00    -0.004 C  
DOCKED: ATOM      3  C   UNL     1       9.656  18.509  17.829 -0.25 -0.00    +0.004 C  
DOCKED: ATOM      4  C   UNL     1      10.368  18.905  16.529 -0.34 -0.00    +0.012 C  
DOCKED: ATOM      5  C   UNL     1       9.615  20.000  15.755 -0.38 -0.01    +0.063 C  
DOCKED: ATOM      6  C   UNL     1       8.224  20.235  16.355 -0.24 -0.03    +0.181 C  
DOCKED: ATOM      7  O   UNL     1       7.691  21.340  15.626 -0.15 +0.13    -0.492 OA 
DOCKED: ATOM      8  C   UNL     1       8.856  22.152  15.718 -0.34 -0.02    +0.099 C  
DOCKED: ATOM      9  C   UNL     1       8.643  23.594  16.022 -0.27 -0.03    +0.086 C  
DOCKED: ATOM     10  C   UNL     1      10.000  21.447  15.795 -0.26 +0.00    -0.000 C  
DOCKED: ENDROOT
DOCKED: BRANCH  10  11
DOCKED: ATOM     11  C   UNL     1      11.305  21.906  16.186 -0.34 +0.00    -0.040 C  
DOCKED: ATOM     12  C   UNL     1      12.506  21.329  15.485 -0.47 -0.00    +0.040 C  
DOCKED: ATOM     13  C   UNL     1      13.783  21.377  16.337 -0.29 -0.01    +0.040 C  
DOCKED: ATOM     14  C   UNL     1      13.908  22.655  17.138 -0.26 +0.00    -0.040 A  
DOCKED: ATOM     15  C   UNL     1      15.162  23.150  17.521 -0.29 -0.00    +0.004 A  
DOCKED: ATOM     16  C   UNL     1      15.253  24.296  18.312 -0.16 -0.00    +0.000 A  
DOCKED: ATOM     17  C   UNL     1      14.098  24.945  18.744 -0.10 -0.00    +0.001 A  
DOCKED: ATOM     18  C   UNL     1      12.845  24.450  18.380 -0.12 -0.00    +0.008 A  
DOCKED: ATOM     19  C   UNL     1      12.745  23.314  17.569 -0.18 +0.00    -0.022 A  
DOCKED: ATOM     20  C   UNL     1      11.430  22.806  17.176 -0.23 -0.00    +0.012 C  
DOCKED: ENDBRANCH  10  11
DOCKED: TORSDOF 1
DOCKED: TER
DOCKED: ENDMDL
________________________________________________________________________________


    FINAL DOCKED STATE:
    ________________________


Run:   49 / 50
Time taken for this run:   0.000s

DOCKED: MODEL        49
DOCKED: USER    Run = 49
DOCKED: USER
DOCKED: USER    Estimated Free Energy of Binding    =  -5.03 kcal/mol  [=(1)+(2)+(3)-(4)]
DOCKED: USER
DOCKED: USER    (1) Final Intermolecular Energy     =  -5.33 kcal/mol
DOCKED: USER        vdW + Hbond + desolv Energy     =  -5.34 kcal/mol
DOCKED: USER        Electrostatic Energy            =  +0.01 kcal/mol
DOCKED: USER        Moving Ligand-Fixed Receptor    =  -5.33 kcal/mol
DOCKED: USER        Moving Ligand-Moving Receptor   =  +0.00 kcal/mol
DOCKED: USER    (2) Final Total Internal Energy     =  -0.46 kcal/mol
DOCKED: USER    (3) Torsional Free Energy           =  +0.30 kcal/mol
DOCKED: USER    (4) Unbound System's Energy         =  -0.46 kcal/mol
DOCKED: USER
DOCKED: USER
DOCKED: REMARK  Name = 
DOCKED: REMARK  2 active torsions:
DOCKED: REMARK  status: ('A' for Active; 'I' for Inactive)
DOCKED: REMARK    1  A    between atoms: C_8  and  C_9
DOCKED: REMARK    2  A    between atoms: C_10  and  C_11
DOCKED: REMARK                            x       y       z     vdW  Elec       q    Type
DOCKED: REMARK                         _______ _______ _______ _____ _____    ______ ____
DOCKED: USER                              x       y       z     vdW  Elec       q    Type
DOCKED: USER                           _______ _______ _______ _____ _____    ______ ____
DOCKED: ROOT
DOCKED: ATOM      1  C   UNL     1      13.041  21.402  16.677 -0.34 -0.01    +0.049 C  
DOCKED: ATOM      2  C   UNL     1      13.175  22.852  17.106 -0.28 +0.00    -0.004 C  
DOCKED: ATOM      3  C   UNL     1      11.968  23.757  16.948 -0.24 +0.00    +0.004 C  
DOCKED: ATOM      4  C   UNL     1      11.155  23.378  15.704 -0.36 +0.00    +0.012 C  
DOCKED: ATOM      5  C   UNL     1      10.797  21.883  15.667 -0.27 -0.00    +0.063 C  
DOCKED: ATOM      6  C   UNL     1      11.556  21.112  16.753 -0.24 -0.02    +0.181 C  
DOCKED: ATOM      7  O   UNL     1      11.049  19.781  16.681 -0.10 +0.07    -0.492 OA 
DOCKED: ATOM      8  C   UNL     1       9.674  20.150  16.638 -0.29 -0.01    +0.099 C  
DOCKED: ATOM      9  C   UNL     1       8.740  19.346  17.473 -0.19 -0.01    +0.086 C  
DOCKED: ATOM     10  C   UNL     1       9.456  21.349  16.066 -0.35 +0.00    -0.000 C  
DOCKED: ENDROOT
DOCKED: BRANCH  10  11
DOCKED: ATOM     11  C   UNL     1       8.268  22.155  16.114 -0.34 +0.01    -0.040 C  
DOCKED: ATOM     12  C   UNL     1       8.359  23.528  16.728 -0.27 -0.02    +0.040 C  
DOCKED: ATOM     13  C   UNL     1       7.020  24.027  17.289 -0.21 -0.03    +0.040 C  
DOCKED: ATOM     14  C   UNL     1       5.840  23.659  16.415 -0.23 +0.02    -0.040 A  
DOCKED: ATOM     15  C   UNL     1       4.671  24.431  16.414 -0.22 -0.00    +0.004 A  
DOCKED: ATOM     16  C   UNL     1       3.572  24.041  15.648 -0.22 -0.00    +0.000 A  
DOCKED: ATOM     17  C   UNL     1       3.622  22.869  14.894 -0.30 -0.00    +0.001 A  
DOCKED: ATOM     18  C   UNL     1       4.777  22.087  14.902 -0.33 -0.00    +0.008 A  
DOCKED: ATOM     19  C   UNL     1       5.891  22.482  15.651 -0.24 +0.01    -0.022 A  
DOCKED: ATOM     20  C   UNL     1       7.107  21.668  15.644 -0.30 -0.00    +0.012 C  
DOCKED: ENDBRANCH  10  11
DOCKED: TORSDOF 1
DOCKED: TER
DOCKED: ENDMDL
________________________________________________________________________________


    FINAL DOCKED STATE:
    ________________________


Run:   50 / 50
Time taken for this run:   0.000s

DOCKED: MODEL        50
DOCKED: USER    Run = 50
DOCKED: USER
DOCKED: USER    Estimated Free Energy of Binding    =  -4.86 kcal/mol  [=(1)+(2)+(3)-(4)]
DOCKED: USER
DOCKED: USER    (1) Final Intermolecular Energy     =  -5.16 kcal/mol
DOCKED: USER        vdW + Hbond + desolv Energy     =  -5.18 kcal/mol
DOCKED: USER        Electrostatic Energy            =  +0.02 kcal/mol
DOCKED: USER        Moving Ligand-Fixed Receptor    =  -5.16 kcal/mol
DOCKED: USER        Moving Ligand-Moving Receptor   =  +0.00 kcal/mol
DOCKED: USER    (2) Final Total Internal Energy     =  -0.56 kcal/mol
DOCKED: USER    (3) Torsional Free Energy           =  +0.30 kcal/mol
DOCKED: USER    (4) Unbound System's Energy         =  -0.56 kcal/mol
DOCKED: USER
DOCKED: USER
DOCKED: REMARK  Name = 
DOCKED: REMARK  2 active torsions:
DOCKED: REMARK  status: ('A' for Active; 'I' for Inactive)
DOCKED: REMARK    1  A    between atoms: C_8  and  C_9
DOCKED: REMARK    2  A    between atoms: C_10  and  C_11
DOCKED: REMARK                            x       y       z     vdW  Elec       q    Type
DOCKED: REMARK                         _______ _______ _______ _____ _____    ______ ____
DOCKED: USER                              x       y       z     vdW  Elec       q    Type
DOCKED: USER                           _______ _______ _______ _____ _____    ______ ____
DOCKED: ROOT
DOCKED: ATOM      1  C   UNL     1      14.203  22.525  17.170 -0.32 -0.00    +0.049 C  
DOCKED: ATOM      2  C   UNL     1      13.719  22.928  18.551 -0.18 +0.00    -0.004 C  
DOCKED: ATOM      3  C   UNL     1      12.223  22.998  18.791 -0.11 -0.00    +0.004 C  
DOCKED: ATOM      4  C   UNL     1      11.485  23.469  17.532 -0.20 -0.00    +0.012 C  
DOCKED: ATOM      5  C   UNL     1      11.859  22.647  16.287 -0.32 +0.00    +0.063 C  
DOCKED: ATOM      6  C   UNL     1      13.056  21.734  16.575 -0.31 -0.01    +0.181 C  
DOCKED: ATOM      7  O   UNL     1      13.219  20.956  15.390 -0.23 +0.06    -0.492 OA 
DOCKED: ATOM      8  C   UNL     1      11.844  20.615  15.249 -0.37 -0.01    +0.099 C  
DOCKED: ATOM      9  C   UNL     1      11.541  19.204  14.880 -0.31 -0.02    +0.086 C  
DOCKED: ATOM     10  C   UNL     1      11.004  21.543  15.743 -0.33 +0.00    -0.000 C  
DOCKED: ENDROOT
DOCKED: BRANCH  10  11
DOCKED: ATOM     11  C   UNL     1       9.604  21.412  16.038 -0.32 +0.01    -0.040 C  
DOCKED: ATOM     12  C   UNL     1       9.119  20.124  16.650 -0.30 -0.01    +0.040 C  
DOCKED: ATOM     13  C   UNL     1       7.641  19.834  16.352 -0.27 -0.01    +0.040 C  
DOCKED: ATOM     14  C   UNL     1       6.776  21.075  16.402 -0.21 +0.01    -0.040 A  
DOCKED: ATOM     15  C   UNL     1       5.411  20.994  16.707 -0.15 -0.00    +0.004 A  
DOCKED: ATOM     16  C   UNL     1       4.617  22.142  16.687 -0.13 -0.00    +0.000 A  
DOCKED: ATOM     17  C   UNL     1       5.173  23.373  16.343 -0.23 -0.00    +0.001 A  
DOCKED: ATOM     18  C   UNL     1       6.528  23.460  16.023 -0.22 -0.00    +0.008 A  
DOCKED: ATOM     19  C   UNL     1       7.335  22.317  16.061 -0.29 +0.01    -0.022 A  
DOCKED: ATOM     20  C   UNL     1       8.759  22.414  15.740 -0.39 -0.00    +0.012 C  
DOCKED: ENDBRANCH  10  11
DOCKED: TORSDOF 1
DOCKED: TER
DOCKED: ENDMDL
________________________________________________________________________________


    CLUSTERING HISTOGRAM
    ____________________


________________________________________________________________________________
     |           |     |           |     |
Clus | Lowest    | Run | Mean      | Num | Histogram
-ter | Binding   |     | Binding   | in  |
Rank | Energy    |     | Energy    | Clus|    5    10   15   20   25   30   35
_____|___________|_____|___________|_____|____:____|____:____|____:____|____:___
   1 |     -5.09 |  40 |     -5.04 |  35 |###################################
   2 |     -4.87 |   7 |     -4.84 |  15 |###############
_____|___________|_____|___________|_____|______________________________________


    RMSD TABLE
    __________


_______________________________________________________________________
     |      |      |           |         |                 |
Rank | Sub- | Run  | Binding   | Cluster | Reference       | Grep
     | Rank |      | Energy    | RMSD    | RMSD            | Pattern
_____|______|______|___________|_________|_________________|___________
   1      1     40       -5.09      0.00     27.30           RANKING
   1      2     36       -5.08      0.03     27.32           RANKING
   1      3      8       -5.07      0.02     27.31           RANKING
   1      4      3       -5.07      0.03     27.32           RANKING
   1      5     31       -5.07      0.07     27.34           RANKING
   1      6     24       -5.07      0.07     27.34           RANKING
   1      7     37       -5.07      0.07     27.33           RANKING
   1      8     30       -5.07      0.07     27.33           RANKING
   1      9     35       -5.07      0.09     27.35           RANKING
   1     10     18       -5.07      0.18     27.38           RANKING
   1     11     38       -5.07      0.08     27.34           RANKING
   1     12     45       -5.07      0.08     27.34           RANKING
   1     13     44       -5.07      0.09     27.35           RANKING
   1     14     33       -5.07      0.10     27.35           RANKING
   1     15     27       -5.06      0.06     27.33           RANKING
   1     16     28       -5.06      0.09     27.33           RANKING
   1     17     22       -5.06      0.08     27.35           RANKING
   1     18     41       -5.06      0.10     27.35           RANKING
   1     19      4       -5.06      0.06     27.33           RANKING
   1     20     26       -5.06      0.07     27.33           RANKING
   1     21     12       -5.06      0.10     27.34           RANKING
   1     22     43       -5.06      0.06     27.33           RANKING
   1     23     46       -5.06      0.08     27.33           RANKING
   1     24     10       -5.06      0.07     27.34           RANKING
   1     25     34       -5.05      0.06     27.33           RANKING
   1     26     29       -5.05      0.07     27.34           RANKING
   1     27     21       -5.05      0.06     27.33           RANKING
   1     28     49       -5.03      0.07     27.34           RANKING
   1     29      5       -5.02      0.08     27.35           RANKING
   1     30      6       -4.99      0.30     27.25           RANKING
   1     31      2       -4.99      0.28     27.25           RANKING
   1     32      1       -4.95      0.38     27.23           RANKING
   1     33     16       -4.87      1.45     27.68           RANKING
   1     34     23       -4.86      1.45     27.65           RANKING
   1     35     50       -4.86      1.46     27.62           RANKING
   2      1      7       -4.87      0.00     28.47           RANKING
   2      2     19       -4.87      0.07     28.51           RANKING
   2      3     20       -4.87      0.05     28.48           RANKING
   2      4     14       -4.87      0.04     28.45           RANKING
   2      5     11       -4.86      0.04     28.45           RANKING
   2      6     32       -4.86      0.05     28.46           RANKING
   2      7     13       -4.86      0.04     28.46           RANKING
   2      8     39       -4.86      0.04     28.46           RANKING
   2      9     47       -4.85      0.06     28.48           RANKING
   2     10     25       -4.85      0.06     28.45           RANKING
   2     11     15       -4.85      0.06     28.47           RANKING
   2     12     42       -4.85      0.07     28.44           RANKING
   2     13      9       -4.84      0.07     28.46           RANKING
   2     14     48       -4.83      0.07     28.47           RANKING
   2     15     17       -4.66      1.80     28.81           RANKING

Run time 0.693 sec
Idle time 0.350 sec
