AutoDock-GPU version: v1.6-14-g28a61394827e4a7cc1a0c277bf23f1fdc917bb4f

**********************************************************
**    AutoDock-GPU AUTODOCKTOOLS-COMPATIBLE DLG FILE    **
**********************************************************


    DOCKING PARAMETERS
    ________________________


Ligand file:                               ligands_nrun50/0/ligand1.pdbqt
Grid fld file:                             2g76/2g76.maps.fld

Random seed:                               0
Number of runs:                            50
Number of energy evaluations:              480000
Number of generations:                     42000
Size of population:                        150
Rate of crossover:                         80.000000%
Tournament selection probability limit:    60.000000%
Rate of mutation:                          2.000000%
Maximal allowed delta movement:            +/- 6.000000A
Maximal allowed delta angle:               +/- 90.000000

Rate of local search:                      100.000000%
Maximal number of local search iterations: 300
Rho lower bound:                           0.010000
Spread of local search delta movement:     2.000000A
Spread of local search delta angle:        74.999999
Limit of consecutive successes/failures:   4

Handle symmetry during clustering:         YES
RMSD tolerance:                            2.000000A

Program call in command line was:          ../bin/autodock_gpu_128wi -M 2g76/2g76.maps.fld -L ligands_nrun50/0/ligand1.pdbqt -N outs_nrun50/ligand1 -nrun 50 -s 0 


    GRID PARAMETERS
    ________________________


Receptor name:                             2g76
Number of grid points (x, y, z):           61, 61, 61
Grid center (x, y, z):                     14.547000, 25.866000, 14.134000A
Grid size (x, y, z):                       22.500000, 22.500000, 22.500000A
Grid spacing:                              0.375000A


    LIGAND PARAMETERS
    ________________________


Ligand name:                               ligands_nrun50/0/ligand1
Number of atoms:                           25
Number of rotatable bonds:                 6
Number of atom types:                      5


    DUMMY DATA (only for ADT-compatibility)
    ________________________


DPF> outlev 1
DPF> ga_run 50
DPF> fld 2g76/2g76.maps.fld
DPF> move ligands_nrun50/0/ligand1.pdbqt


    COUNTER STATES
    ________________________


Number of energy evaluations performed:    482282
Number of generations used:                29


    INPUT LIGAND PDBQT FILE:
    ________________________


INPUT-LIGAND-PDBQT: REMARK  Name = 
INPUT-LIGAND-PDBQT: REMARK  11 active torsions:
INPUT-LIGAND-PDBQT: REMARK  status: ('A' for Active; 'I' for Inactive)
INPUT-LIGAND-PDBQT: REMARK    1  A    between atoms: C_1  and  C_2
INPUT-LIGAND-PDBQT: REMARK    2  A    between atoms: C_3  and  C_4
INPUT-LIGAND-PDBQT: REMARK    3  A    between atoms: C_6  and  C_7
INPUT-LIGAND-PDBQT: REMARK    4  A    between atoms: C_8  and  C_9
INPUT-LIGAND-PDBQT: REMARK    5  A    between atoms: C_11  and  C_12
INPUT-LIGAND-PDBQT: REMARK    6  A    between atoms: C_12  and  C_13
INPUT-LIGAND-PDBQT: REMARK    7  A    between atoms: C_13  and  C_14
INPUT-LIGAND-PDBQT: REMARK    8  A    between atoms: C_14  and  C_15
INPUT-LIGAND-PDBQT: REMARK    9  A    between atoms: C_14  and  N_16
INPUT-LIGAND-PDBQT: REMARK   10  A    between atoms: N_16  and  C_17
INPUT-LIGAND-PDBQT: REMARK   11  A    between atoms: C_20  and  C_21
INPUT-LIGAND-PDBQT: REMARK                            x       y       z     vdW  Elec       q    Type
INPUT-LIGAND-PDBQT: REMARK                         _______ _______ _______ _____ _____    ______ ____
INPUT-LIGAND-PDBQT: ROOT
INPUT-LIGAND-PDBQT: ATOM      1  C   UNL     1       5.458  -1.823   0.582  0.00  0.00    +0.022 C 
INPUT-LIGAND-PDBQT: ENDROOT
INPUT-LIGAND-PDBQT: BRANCH   1   2
INPUT-LIGAND-PDBQT: ATOM      2  C   UNL     1       5.017  -3.298   0.736  0.00  0.00    +0.067 C 
INPUT-LIGAND-PDBQT: ATOM      3  C   UNL     1       5.672  -4.179  -0.337  0.00  0.00    +0.028 C 
INPUT-LIGAND-PDBQT: BRANCH   2   4
INPUT-LIGAND-PDBQT: ATOM      4  N   UNL     1       5.405  -3.777   2.070  0.00  0.00    -0.340 N 
INPUT-LIGAND-PDBQT: ATOM      5  H   UNL     1       5.681  -3.032   2.713  0.00  0.00    +0.146 HD
INPUT-LIGAND-PDBQT: BRANCH   4   6
INPUT-LIGAND-PDBQT: ATOM      6  C   UNL     1       4.595  -4.713   2.745  0.00  0.00    +0.046 A 
INPUT-LIGAND-PDBQT: ATOM      7  C   UNL     1       3.839  -5.672   2.058  0.00  0.00    +0.024 A 
INPUT-LIGAND-PDBQT: ATOM      8  C   UNL     1       3.093  -6.642   2.731  0.00  0.00    +0.005 A 
INPUT-LIGAND-PDBQT: ATOM      9  C   UNL     1       3.078  -6.687   4.124  0.00  0.00    -0.049 A 
INPUT-LIGAND-PDBQT: ATOM     10  C   UNL     1       2.256  -7.717   4.835  0.00  0.00    +0.044 C 
INPUT-LIGAND-PDBQT: ATOM     11  C   UNL     1       3.850  -5.764   4.836  0.00  0.00    +0.025 A 
INPUT-LIGAND-PDBQT: ATOM     12  C   UNL     1       4.606  -4.801   4.152  0.00  0.00    +0.062 A 
INPUT-LIGAND-PDBQT: ATOM     13 CL   UNL     1       5.540  -3.684   5.096  0.00  0.00    -0.082 Cl
INPUT-LIGAND-PDBQT: ENDBRANCH   4   6
INPUT-LIGAND-PDBQT: ENDBRANCH   2   4
INPUT-LIGAND-PDBQT: ENDBRANCH   1   2
INPUT-LIGAND-PDBQT: BRANCH   1  14
INPUT-LIGAND-PDBQT: ATOM     14  C   UNL     1       5.003  -1.228  -0.761  0.00  0.00    +0.010 C 
INPUT-LIGAND-PDBQT: BRANCH  14  22
INPUT-LIGAND-PDBQT: ATOM     15  C   UNL     1       4.675   1.213  -0.093  0.00  0.00    -0.048 C 
INPUT-LIGAND-PDBQT: ATOM     16  C   UNL     1       5.316   2.156   0.610  0.00  0.00    -0.020 C 
INPUT-LIGAND-PDBQT: ATOM     17  C   UNL     1       6.795   2.414   0.598  0.00  0.00    +0.012 C 
INPUT-LIGAND-PDBQT: ATOM     18  C   UNL     1       7.025   3.903   0.318  0.00  0.00    +0.012 C 
INPUT-LIGAND-PDBQT: ATOM     19  C   UNL     1       7.652   1.446  -0.265  0.00  0.00    -0.007 C 
INPUT-LIGAND-PDBQT: ATOM     20  C   UNL     1       8.704   2.123  -1.160  0.00  0.00    +0.008 C 
INPUT-LIGAND-PDBQT: ATOM     21  C   UNL     1       6.915   0.395  -1.114  0.00  0.00    +0.012 C 
INPUT-LIGAND-PDBQT: ATOM     22  C   UNL     1       5.387   0.251  -1.006  0.00  0.00    +0.019 C 
INPUT-LIGAND-PDBQT: BRANCH  15  25
INPUT-LIGAND-PDBQT: ATOM     23  C   UNL     1       0.936   1.019   0.871  0.00  0.00    +0.035 C 
INPUT-LIGAND-PDBQT: ATOM     24  C   UNL     1       2.425   1.125   0.957  0.00  0.00    -0.030 C 
INPUT-LIGAND-PDBQT: ATOM     25  C   UNL     1       3.220   1.150  -0.122  0.00  0.00    -0.001 C 
INPUT-LIGAND-PDBQT: ENDBRANCH  15  25
INPUT-LIGAND-PDBQT: ENDBRANCH  14  22
INPUT-LIGAND-PDBQT: ENDBRANCH   1  14
INPUT-LIGAND-PDBQT: TORSDOF 6


    FINAL DOCKED STATE:
    ________________________


Run:   1 / 50
Time taken for this run:   0.000s

DOCKED: MODEL        1
DOCKED: USER    Run = 1
DOCKED: USER
DOCKED: USER    Estimated Free Energy of Binding    =  -5.12 kcal/mol  [=(1)+(2)+(3)-(4)]
DOCKED: USER
DOCKED: USER    (1) Final Intermolecular Energy     =  -6.91 kcal/mol
DOCKED: USER        vdW + Hbond + desolv Energy     =  -6.89 kcal/mol
DOCKED: USER        Electrostatic Energy            =  -0.01 kcal/mol
DOCKED: USER        Moving Ligand-Fixed Receptor    =  -6.91 kcal/mol
DOCKED: USER        Moving Ligand-Moving Receptor   =  +0.00 kcal/mol
DOCKED: USER    (2) Final Total Internal Energy     =  -1.54 kcal/mol
DOCKED: USER    (3) Torsional Free Energy           =  +1.79 kcal/mol
DOCKED: USER    (4) Unbound System's Energy         =  -1.54 kcal/mol
DOCKED: USER
DOCKED: USER
DOCKED: REMARK  Name = 
DOCKED: REMARK  11 active torsions:
DOCKED: REMARK  status: ('A' for Active; 'I' for Inactive)
DOCKED: REMARK    1  A    between atoms: C_1  and  C_2
DOCKED: REMARK    2  A    between atoms: C_3  and  C_4
DOCKED: REMARK    3  A    between atoms: C_6  and  C_7
DOCKED: REMARK    4  A    between atoms: C_8  and  C_9
DOCKED: REMARK    5  A    between atoms: C_11  and  C_12
DOCKED: REMARK    6  A    between atoms: C_12  and  C_13
DOCKED: REMARK    7  A    between atoms: C_13  and  C_14
DOCKED: REMARK    8  A    between atoms: C_14  and  C_15
DOCKED: REMARK    9  A    between atoms: C_14  and  N_16
DOCKED: REMARK   10  A    between atoms: N_16  and  C_17
DOCKED: REMARK   11  A    between atoms: C_20  and  C_21
DOCKED: REMARK                            x       y       z     vdW  Elec       q    Type
DOCKED: REMARK                         _______ _______ _______ _____ _____    ______ ____
DOCKED: USER                              x       y       z     vdW  Elec       q    Type
DOCKED: USER                           _______ _______ _______ _____ _____    ______ ____
DOCKED: ROOT
DOCKED: ATOM      1  C   UNL     1      13.920  21.363  16.387 -0.27 -0.00    +0.022 C  
DOCKED: ENDROOT
DOCKED: BRANCH   1   2
DOCKED: ATOM      2  C   UNL     1      13.928  22.062  17.767 -0.30 -0.01    +0.067 C  
DOCKED: ATOM      3  C   UNL     1      13.414  21.116  18.862 -0.20 -0.00    +0.028 C  
DOCKED: BRANCH   2   4
DOCKED: ATOM      4  N   UNL     1      15.301  22.480  18.084 -0.16 +0.05    -0.340 N  
DOCKED: ATOM      5  H   UNL     1      16.008  21.775  17.870 -0.32 -0.06    +0.146 HD 
DOCKED: BRANCH   4   6
DOCKED: ATOM      6  C   UNL     1      15.759  23.752  17.682 -0.24 -0.00    +0.046 A  
DOCKED: ATOM      7  C   UNL     1      16.848  23.908  16.814 -0.16 -0.00    +0.024 A  
DOCKED: ATOM      8  C   UNL     1      17.256  25.165  16.363 -0.31 -0.00    +0.005 A  
DOCKED: ATOM      9  C   UNL     1      16.584  26.317  16.767 -0.24 -0.00    -0.049 A  
DOCKED: ATOM     10  C   UNL     1      17.044  27.662  16.295 -0.25 +0.00    +0.044 C  
DOCKED: ATOM     11  C   UNL     1      15.472  26.190  17.605 -0.17 +0.00    +0.025 A  
DOCKED: ATOM     12  C   UNL     1      15.062  24.922  18.044 -0.14 +0.00    +0.062 A  
DOCKED: ATOM     13 CL   UNL     1      13.676  24.835  19.085 -0.11 +0.01    -0.082 Cl 
DOCKED: ENDBRANCH   4   6
DOCKED: ENDBRANCH   2   4
DOCKED: ENDBRANCH   1   2
DOCKED: BRANCH   1  14
DOCKED: ATOM     14  C   UNL     1      12.670  21.727  15.570 -0.37 +0.00    +0.010 C  
DOCKED: BRANCH  14  22
DOCKED: ATOM     15  C   UNL     1      10.466  22.884  16.132 -0.33 +0.00    -0.048 C  
DOCKED: ATOM     16  C   UNL     1       9.176  22.813  15.779 -0.39 +0.00    -0.020 C  
DOCKED: ATOM     17  C   UNL     1       8.393  21.553  15.545 -0.36 -0.00    +0.012 C  
DOCKED: ATOM     18  C   UNL     1       7.110  21.618  16.381 -0.28 -0.00    +0.012 C  
DOCKED: ATOM     19  C   UNL     1       9.185  20.222  15.665 -0.39 +0.00    -0.007 C  
DOCKED: ATOM     20  C   UNL     1       8.493  19.118  16.483 -0.34 -0.00    +0.008 C  
DOCKED: ATOM     21  C   UNL     1      10.653  20.297  16.122 -0.41 -0.00    +0.012 C  
DOCKED: ATOM     22  C   UNL     1      11.325  21.665  16.334 -0.34 -0.00    +0.019 C  
DOCKED: BRANCH  15  25
DOCKED: ATOM     23  C   UNL     1      11.168  26.437  17.485 -0.24 -0.01    +0.035 C  
DOCKED: ATOM     24  C   UNL     1      10.501  25.132  17.190 -0.26 +0.01    -0.030 C  
DOCKED: ATOM     25  C   UNL     1      11.085  24.156  16.480 -0.31 -0.00    -0.001 C  
DOCKED: ENDBRANCH  15  25
DOCKED: ENDBRANCH  14  22
DOCKED: ENDBRANCH   1  14
DOCKED: TORSDOF 6
DOCKED: TER
DOCKED: ENDMDL
________________________________________________________________________________


    FINAL DOCKED STATE:
    ________________________


Run:   2 / 50
Time taken for this run:   0.000s

DOCKED: MODEL        2
DOCKED: USER    Run = 2
DOCKED: USER
DOCKED: USER    Estimated Free Energy of Binding    =  -3.70 kcal/mol  [=(1)+(2)+(3)-(4)]
DOCKED: USER
DOCKED: USER    (1) Final Intermolecular Energy     =  -5.49 kcal/mol
DOCKED: USER        vdW + Hbond + desolv Energy     =  -5.49 kcal/mol
DOCKED: USER        Electrostatic Energy            =  +0.00 kcal/mol
DOCKED: USER        Moving Ligand-Fixed Receptor    =  -5.49 kcal/mol
DOCKED: USER        Moving Ligand-Moving Receptor   =  +0.00 kcal/mol
DOCKED: USER    (2) Final Total Internal Energy     =  -2.45 kcal/mol
DOCKED: USER    (3) Torsional Free Energy           =  +1.79 kcal/mol
DOCKED: USER    (4) Unbound System's Energy         =  -2.45 kcal/mol
DOCKED: USER
DOCKED: USER
DOCKED: REMARK  Name = 
DOCKED: REMARK  11 active torsions:
DOCKED: REMARK  status: ('A' for Active; 'I' for Inactive)
DOCKED: REMARK    1  A    between atoms: C_1  and  C_2
DOCKED: REMARK    2  A    between atoms: C_3  and  C_4
DOCKED: REMARK    3  A    between atoms: C_6  and  C_7
DOCKED: REMARK    4  A    between atoms: C_8  and  C_9
DOCKED: REMARK    5  A    between atoms: C_11  and  C_12
DOCKED: REMARK    6  A    between atoms: C_12  and  C_13
DOCKED: REMARK    7  A    between atoms: C_13  and  C_14
DOCKED: REMARK    8  A    between atoms: C_14  and  C_15
DOCKED: REMARK    9  A    between atoms: C_14  and  N_16
DOCKED: REMARK   10  A    between atoms: N_16  and  C_17
DOCKED: REMARK   11  A    between atoms: C_20  and  C_21
DOCKED: REMARK                            x       y       z     vdW  Elec       q    Type
DOCKED: REMARK                         _______ _______ _______ _____ _____    ______ ____
DOCKED: USER                              x       y       z     vdW  Elec       q    Type
DOCKED: USER                           _______ _______ _______ _____ _____    ______ ____
DOCKED: ROOT
DOCKED: ATOM      1  C   UNL     1       8.519  22.135  16.915 -0.23 -0.01    +0.022 C  
DOCKED: ENDROOT
DOCKED: BRANCH   1   2
DOCKED: ATOM      2  C   UNL     1       9.912  22.798  17.027 -0.20 -0.01    +0.067 C  
DOCKED: ATOM      3  C   UNL     1       9.852  24.271  16.598 -0.29 -0.01    +0.028 C  
DOCKED: BRANCH   2   4
DOCKED: ATOM      4  N   UNL     1      10.375  22.710  18.419 -0.01 +0.07    -0.340 N  
DOCKED: ATOM      5  H   UNL     1       9.629  22.516  19.091 +0.03 -0.04    +0.146 HD 
DOCKED: BRANCH   4   6
DOCKED: ATOM      6  C   UNL     1      11.513  21.941  18.735 -0.09 -0.01    +0.046 A  
DOCKED: ATOM      7  C   UNL     1      12.793  22.291  18.286 -0.16 -0.00    +0.024 A  
DOCKED: ATOM      8  C   UNL     1      13.928  21.567  18.658 -0.22 -0.00    +0.005 A  
DOCKED: ATOM      9  C   UNL     1      13.821  20.461  19.500 -0.16 +0.01    -0.049 A  
DOCKED: ATOM     10  C   UNL     1      15.042  19.679  19.874 -0.23 -0.00    +0.044 C  
DOCKED: ATOM     11  C   UNL     1      12.561  20.109  19.992 -0.11 -0.00    +0.025 A  
DOCKED: ATOM     12  C   UNL     1      11.428  20.849  19.622 -0.08 -0.01    +0.062 A  
DOCKED: ATOM     13 CL   UNL     1       9.894  20.356  20.266 -0.05 +0.01    -0.082 Cl 
DOCKED: ENDBRANCH   4   6
DOCKED: ENDBRANCH   2   4
DOCKED: ENDBRANCH   1   2
DOCKED: BRANCH   1  14
DOCKED: ATOM     14  C   UNL     1       8.389  21.291  15.637 -0.38 -0.00    +0.010 C  
DOCKED: BRANCH  14  22
DOCKED: ATOM     15  C   UNL     1       9.834  19.298  16.310 -0.39 +0.01    -0.048 C  
DOCKED: ATOM     16  C   UNL     1       9.991  18.482  17.361 -0.26 +0.00    -0.020 C  
DOCKED: ATOM     17  C   UNL     1       8.891  17.898  18.199 -0.21 -0.00    +0.012 C  
DOCKED: ATOM     18  C   UNL     1       9.095  16.382  18.280 -0.21 -0.00    +0.012 C  
DOCKED: ATOM     19  C   UNL     1       7.446  18.346  17.839 -0.18 +0.00    -0.007 C  
DOCKED: ATOM     20  C   UNL     1       6.409  17.212  17.765 -0.21 -0.00    +0.008 C  
DOCKED: ATOM     21  C   UNL     1       7.257  19.241  16.602 -0.26 -0.00    +0.012 C  
DOCKED: ATOM     22  C   UNL     1       8.484  19.758  15.830 -0.34 -0.00    +0.019 C  
DOCKED: BRANCH  15  25
DOCKED: ATOM     23  C   UNL     1      13.000  20.995  14.882 -0.36 -0.00    +0.035 C  
DOCKED: ATOM     24  C   UNL     1      11.881  20.608  15.794 -0.42 +0.00    -0.030 C  
DOCKED: ATOM     25  C   UNL     1      10.964  19.683  15.476 -0.48 +0.00    -0.001 C  
DOCKED: ENDBRANCH  15  25
DOCKED: ENDBRANCH  14  22
DOCKED: ENDBRANCH   1  14
DOCKED: TORSDOF 6
DOCKED: TER
DOCKED: ENDMDL
________________________________________________________________________________


    FINAL DOCKED STATE:
    ________________________


Run:   3 / 50
Time taken for this run:   0.000s

DOCKED: MODEL        3
DOCKED: USER    Run = 3
DOCKED: USER
DOCKED: USER    Estimated Free Energy of Binding    =  -4.09 kcal/mol  [=(1)+(2)+(3)-(4)]
DOCKED: USER
DOCKED: USER    (1) Final Intermolecular Energy     =  -5.88 kcal/mol
DOCKED: USER        vdW + Hbond + desolv Energy     =  -5.89 kcal/mol
DOCKED: USER        Electrostatic Energy            =  +0.00 kcal/mol
DOCKED: USER        Moving Ligand-Fixed Receptor    =  -5.88 kcal/mol
DOCKED: USER        Moving Ligand-Moving Receptor   =  +0.00 kcal/mol
DOCKED: USER    (2) Final Total Internal Energy     =  -2.44 kcal/mol
DOCKED: USER    (3) Torsional Free Energy           =  +1.79 kcal/mol
DOCKED: USER    (4) Unbound System's Energy         =  -2.44 kcal/mol
DOCKED: USER
DOCKED: USER
DOCKED: REMARK  Name = 
DOCKED: REMARK  11 active torsions:
DOCKED: REMARK  status: ('A' for Active; 'I' for Inactive)
DOCKED: REMARK    1  A    between atoms: C_1  and  C_2
DOCKED: REMARK    2  A    between atoms: C_3  and  C_4
DOCKED: REMARK    3  A    between atoms: C_6  and  C_7
DOCKED: REMARK    4  A    between atoms: C_8  and  C_9
DOCKED: REMARK    5  A    between atoms: C_11  and  C_12
DOCKED: REMARK    6  A    between atoms: C_12  and  C_13
DOCKED: REMARK    7  A    between atoms: C_13  and  C_14
DOCKED: REMARK    8  A    between atoms: C_14  and  C_15
DOCKED: REMARK    9  A    between atoms: C_14  and  N_16
DOCKED: REMARK   10  A    between atoms: N_16  and  C_17
DOCKED: REMARK   11  A    between atoms: C_20  and  C_21
DOCKED: REMARK                            x       y       z     vdW  Elec       q    Type
DOCKED: REMARK                         _______ _______ _______ _____ _____    ______ ____
DOCKED: USER                              x       y       z     vdW  Elec       q    Type
DOCKED: USER                           _______ _______ _______ _____ _____    ______ ____
DOCKED: ROOT
DOCKED: ATOM      1  C   UNL     1       9.517  20.398  15.788 -0.36 -0.00    +0.022 C  
DOCKED: ENDROOT
DOCKED: BRANCH   1   2
DOCKED: ATOM      2  C   UNL     1      10.997  19.948  15.752 -0.42 -0.01    +0.067 C  
DOCKED: ATOM      3  C   UNL     1      11.177  18.736  14.827 -0.48 -0.01    +0.028 C  
DOCKED: BRANCH   2   4
DOCKED: ATOM      4  N   UNL     1      11.825  21.062  15.269 -0.20 +0.02    -0.340 N  
DOCKED: ATOM      5  H   UNL     1      11.908  21.105  14.251 +0.07 +0.00    +0.146 HD 
DOCKED: BRANCH   4   6
DOCKED: ATOM      6  C   UNL     1      11.630  22.360  15.786 -0.32 +0.00    +0.046 A  
DOCKED: ATOM      7  C   UNL     1      10.663  23.229  15.263 -0.36 +0.00    +0.024 A  
DOCKED: ATOM      8  C   UNL     1      10.424  24.486  15.822 -0.30 -0.00    +0.005 A  
DOCKED: ATOM      9  C   UNL     1      11.148  24.920  16.931 -0.23 +0.00    -0.049 A  
DOCKED: ATOM     10  C   UNL     1      10.900  26.280  17.508 -0.23 -0.02    +0.044 C  
DOCKED: ATOM     11  C   UNL     1      12.096  24.060  17.495 -0.17 -0.00    +0.025 A  
DOCKED: ATOM     12  C   UNL     1      12.321  22.794  16.935 -0.22 -0.00    +0.062 A  
DOCKED: ATOM     13 CL   UNL     1      13.512  21.778  17.683 -0.40 +0.01    -0.082 Cl 
DOCKED: ENDBRANCH   4   6
DOCKED: ENDBRANCH   2   4
DOCKED: ENDBRANCH   1   2
DOCKED: BRANCH   1  14
DOCKED: ATOM     14  C   UNL     1       8.935  20.336  17.210 -0.22 -0.00    +0.010 C  
DOCKED: BRANCH  14  22
DOCKED: ATOM     15  C   UNL     1       7.996  22.655  17.712 -0.14 +0.02    -0.048 C  
DOCKED: ATOM     16  C   UNL     1       7.387  23.654  17.060 -0.24 +0.01    -0.020 C  
DOCKED: ATOM     17  C   UNL     1       6.317  23.505  16.018 -0.26 -0.01    +0.012 C  
DOCKED: ATOM     18  C   UNL     1       5.132  24.395  16.409 -0.26 -0.01    +0.012 C  
DOCKED: ATOM     19  C   UNL     1       5.940  22.049  15.626 -0.30 +0.00    -0.007 C  
DOCKED: ATOM     20  C   UNL     1       4.431  21.761  15.545 -0.29 -0.00    +0.008 C  
DOCKED: ATOM     21  C   UNL     1       6.600  20.900  16.409 -0.24 -0.00    +0.012 C  
DOCKED: ATOM     22  C   UNL     1       7.680  21.205  17.461 -0.15 -0.00    +0.019 C  
DOCKED: BRANCH  15  25
DOCKED: ATOM     23  C   UNL     1       9.965  24.296  20.606 -0.02 -0.01    +0.035 C  
DOCKED: ATOM     24  C   UNL     1       8.976  24.063  19.510 -0.06 +0.01    -0.030 C  
DOCKED: ATOM     25  C   UNL     1       8.913  22.919  18.813 -0.07 +0.00    -0.001 C  
DOCKED: ENDBRANCH  15  25
DOCKED: ENDBRANCH  14  22
DOCKED: ENDBRANCH   1  14
DOCKED: TORSDOF 6
DOCKED: TER
DOCKED: ENDMDL
________________________________________________________________________________


    FINAL DOCKED STATE:
    ________________________


Run:   4 / 50
Time taken for this run:   0.000s

DOCKED: MODEL        4
DOCKED: USER    Run = 4
DOCKED: USER
DOCKED: USER    Estimated Free Energy of Binding    =  -3.66 kcal/mol  [=(1)+(2)+(3)-(4)]
DOCKED: USER
DOCKED: USER    (1) Final Intermolecular Energy     =  -5.45 kcal/mol
DOCKED: USER        vdW + Hbond + desolv Energy     =  -5.42 kcal/mol
DOCKED: USER        Electrostatic Energy            =  -0.02 kcal/mol
DOCKED: USER        Moving Ligand-Fixed Receptor    =  -5.45 kcal/mol
DOCKED: USER        Moving Ligand-Moving Receptor   =  +0.00 kcal/mol
DOCKED: USER    (2) Final Total Internal Energy     =  -2.51 kcal/mol
DOCKED: USER    (3) Torsional Free Energy           =  +1.79 kcal/mol
DOCKED: USER    (4) Unbound System's Energy         =  -2.51 kcal/mol
DOCKED: USER
DOCKED: USER
DOCKED: REMARK  Name = 
DOCKED: REMARK  11 active torsions:
DOCKED: REMARK  status: ('A' for Active; 'I' for Inactive)
DOCKED: REMARK    1  A    between atoms: C_1  and  C_2
DOCKED: REMARK    2  A    between atoms: C_3  and  C_4
DOCKED: REMARK    3  A    between atoms: C_6  and  C_7
DOCKED: REMARK    4  A    between atoms: C_8  and  C_9
DOCKED: REMARK    5  A    between atoms: C_11  and  C_12
DOCKED: REMARK    6  A    between atoms: C_12  and  C_13
DOCKED: REMARK    7  A    between atoms: C_13  and  C_14
DOCKED: REMARK    8  A    between atoms: C_14  and  C_15
DOCKED: REMARK    9  A    between atoms: C_14  and  N_16
DOCKED: REMARK   10  A    between atoms: N_16  and  C_17
DOCKED: REMARK   11  A    between atoms: C_20  and  C_21
DOCKED: REMARK                            x       y       z     vdW  Elec       q    Type
DOCKED: REMARK                         _______ _______ _______ _____ _____    ______ ____
DOCKED: USER                              x       y       z     vdW  Elec       q    Type
DOCKED: USER                           _______ _______ _______ _____ _____    ______ ____
DOCKED: ROOT
DOCKED: ATOM      1  C   UNL     1      11.271  20.543  17.156 -0.26 -0.00    +0.022 C  
DOCKED: ENDROOT
DOCKED: BRANCH   1   2
DOCKED: ATOM      2  C   UNL     1      12.490  21.380  16.702 -0.34 -0.01    +0.067 C  
DOCKED: ATOM      3  C   UNL     1      12.704  21.257  15.187 -0.43 -0.00    +0.028 C  
DOCKED: BRANCH   2   4
DOCKED: ATOM      4  N   UNL     1      12.262  22.788  17.054 -0.10 +0.01    -0.340 N  
DOCKED: ATOM      5  H   UNL     1      12.623  23.451  16.364 +0.05 +0.02    +0.146 HD 
DOCKED: BRANCH   4   6
DOCKED: ATOM      6  C   UNL     1      10.990  23.206  17.495 -0.15 -0.01    +0.046 A  
DOCKED: ATOM      7  C   UNL     1      10.650  23.238  18.854 -0.06 -0.01    +0.024 A  
DOCKED: ATOM      8  C   UNL     1       9.414  23.719  19.293 -0.05 -0.00    +0.005 A  
DOCKED: ATOM      9  C   UNL     1       8.470  24.188  18.381 -0.12 +0.03    -0.049 A  
DOCKED: ATOM     10  C   UNL     1       7.139  24.679  18.861 -0.12 -0.03    +0.044 C  
DOCKED: ATOM     11  C   UNL     1       8.795  24.200  17.021 -0.19 -0.01    +0.025 A  
DOCKED: ATOM     12  C   UNL     1      10.043  23.727  16.591 -0.26 -0.01    +0.062 A  
DOCKED: ATOM     13 CL   UNL     1      10.381  23.768  14.889 -0.50 -0.00    -0.082 Cl 
DOCKED: ENDBRANCH   4   6
DOCKED: ENDBRANCH   2   4
DOCKED: ENDBRANCH   1   2
DOCKED: BRANCH   1  14
DOCKED: ATOM     14  C   UNL     1      10.584  19.845  15.970 -0.45 -0.00    +0.010 C  
DOCKED: BRANCH  14  22
DOCKED: ATOM     15  C   UNL     1       8.691  19.027  17.474 -0.22 +0.01    -0.048 C  
DOCKED: ATOM     16  C   UNL     1       7.715  19.545  18.230 -0.11 +0.00    -0.020 C  
DOCKED: ATOM     17  C   UNL     1       6.852  20.720  17.874 -0.10 -0.00    +0.012 C  
DOCKED: ATOM     18  C   UNL     1       5.384  20.315  18.049 -0.07 -0.00    +0.012 C  
DOCKED: ATOM     19  C   UNL     1       7.179  21.428  16.529 -0.26 +0.00    -0.007 C  
DOCKED: ATOM     20  C   UNL     1       5.962  21.748  15.644 -0.30 -0.00    +0.008 C  
DOCKED: ATOM     21  C   UNL     1       8.264  20.805  15.634 -0.34 -0.00    +0.012 C  
DOCKED: ATOM     22  C   UNL     1       9.066  19.588  16.128 -0.39 -0.00    +0.019 C  
DOCKED: BRANCH  15  25
DOCKED: ATOM     23  C   UNL     1       9.514  15.487  18.792 -0.22 +0.00    +0.035 C  
DOCKED: ATOM     24  C   UNL     1       8.767  16.717  18.386 -0.20 +0.00    -0.030 C  
DOCKED: ATOM     25  C   UNL     1       9.365  17.791  17.850 -0.22 +0.00    -0.001 C  
DOCKED: ENDBRANCH  15  25
DOCKED: ENDBRANCH  14  22
DOCKED: ENDBRANCH   1  14
DOCKED: TORSDOF 6
DOCKED: TER
DOCKED: ENDMDL
________________________________________________________________________________


    FINAL DOCKED STATE:
    ________________________


Run:   5 / 50
Time taken for this run:   0.000s

DOCKED: MODEL        5
DOCKED: USER    Run = 5
DOCKED: USER
DOCKED: USER    Estimated Free Energy of Binding    =  -3.51 kcal/mol  [=(1)+(2)+(3)-(4)]
DOCKED: USER
DOCKED: USER    (1) Final Intermolecular Energy     =  -5.30 kcal/mol
DOCKED: USER        vdW + Hbond + desolv Energy     =  -5.32 kcal/mol
DOCKED: USER        Electrostatic Energy            =  +0.02 kcal/mol
DOCKED: USER        Moving Ligand-Fixed Receptor    =  -5.30 kcal/mol
DOCKED: USER        Moving Ligand-Moving Receptor   =  +0.00 kcal/mol
DOCKED: USER    (2) Final Total Internal Energy     =  -2.54 kcal/mol
DOCKED: USER    (3) Torsional Free Energy           =  +1.79 kcal/mol
DOCKED: USER    (4) Unbound System's Energy         =  -2.54 kcal/mol
DOCKED: USER
DOCKED: USER
DOCKED: REMARK  Name = 
DOCKED: REMARK  11 active torsions:
DOCKED: REMARK  status: ('A' for Active; 'I' for Inactive)
DOCKED: REMARK    1  A    between atoms: C_1  and  C_2
DOCKED: REMARK    2  A    between atoms: C_3  and  C_4
DOCKED: REMARK    3  A    between atoms: C_6  and  C_7
DOCKED: REMARK    4  A    between atoms: C_8  and  C_9
DOCKED: REMARK    5  A    between atoms: C_11  and  C_12
DOCKED: REMARK    6  A    between atoms: C_12  and  C_13
DOCKED: REMARK    7  A    between atoms: C_13  and  C_14
DOCKED: REMARK    8  A    between atoms: C_14  and  C_15
DOCKED: REMARK    9  A    between atoms: C_14  and  N_16
DOCKED: REMARK   10  A    between atoms: N_16  and  C_17
DOCKED: REMARK   11  A    between atoms: C_20  and  C_21
DOCKED: REMARK                            x       y       z     vdW  Elec       q    Type
DOCKED: REMARK                         _______ _______ _______ _____ _____    ______ ____
DOCKED: USER                              x       y       z     vdW  Elec       q    Type
DOCKED: USER                           _______ _______ _______ _____ _____    ______ ____
DOCKED: ROOT
DOCKED: ATOM      1  C   UNL     1       7.131  21.917  17.057 -0.19 -0.01    +0.022 C  
DOCKED: ENDROOT
DOCKED: BRANCH   1   2
DOCKED: ATOM      2  C   UNL     1       7.571  23.398  16.980 -0.23 -0.03    +0.067 C  
DOCKED: ATOM      3  C   UNL     1       6.358  24.334  17.082 -0.21 -0.02    +0.028 C  
DOCKED: BRANCH   2   4
DOCKED: ATOM      4  N   UNL     1       8.502  23.679  18.082 -0.05 +0.15    -0.340 N  
DOCKED: ATOM      5  H   UNL     1       8.148  23.410  19.002 +0.02 -0.06    +0.146 HD 
DOCKED: BRANCH   4   6
DOCKED: ATOM      6  C   UNL     1       9.859  23.311  17.968 -0.11 -0.01    +0.046 A  
DOCKED: ATOM      7  C   UNL     1      10.721  23.929  17.052 -0.22 -0.00    +0.024 A  
DOCKED: ATOM      8  C   UNL     1      12.079  23.612  16.990 -0.21 +0.00    +0.005 A  
DOCKED: ATOM      9  C   UNL     1      12.626  22.659  17.848 -0.17 +0.00    -0.049 A  
DOCKED: ATOM     10  C   UNL     1      14.080  22.310  17.757 -0.31 -0.01    +0.044 C  
DOCKED: ATOM     11  C   UNL     1      11.797  22.050  18.795 -0.10 -0.00    +0.025 A  
DOCKED: ATOM     12  C   UNL     1      10.436  22.384  18.859 -0.05 -0.01    +0.062 A  
DOCKED: ATOM     13 CL   UNL     1       9.463  21.590  20.056 -0.03 +0.02    -0.082 Cl 
DOCKED: ENDBRANCH   4   6
DOCKED: ENDBRANCH   2   4
DOCKED: ENDBRANCH   1   2
DOCKED: BRANCH   1  14
DOCKED: ATOM     14  C   UNL     1       7.498  21.146  15.777 -0.29 -0.00    +0.010 C  
DOCKED: BRANCH  14  22
DOCKED: ATOM     15  C   UNL     1       9.455  19.766  16.659 -0.32 +0.01    -0.048 C  
DOCKED: ATOM     16  C   UNL     1       9.752  19.013  17.726 -0.24 +0.00    -0.020 C  
DOCKED: ATOM     17  C   UNL     1       8.830  18.040  18.404 -0.19 -0.00    +0.012 C  
DOCKED: ATOM     18  C   UNL     1       9.550  16.692  18.522 -0.24 -0.00    +0.012 C  
DOCKED: ATOM     19  C   UNL     1       7.383  17.962  17.842 -0.19 +0.00    -0.007 C  
DOCKED: ATOM     20  C   UNL     1       6.839  16.539  17.629 -0.22 -0.00    +0.008 C  
DOCKED: ATOM     21  C   UNL     1       7.054  18.787  16.585 -0.26 -0.00    +0.012 C  
DOCKED: ATOM     22  C   UNL     1       8.106  19.739  15.991 -0.31 -0.00    +0.019 C  
DOCKED: BRANCH  15  25
DOCKED: ATOM     23  C   UNL     1      12.673  20.970  14.887 -0.43 -0.00    +0.035 C  
DOCKED: ATOM     24  C   UNL     1      11.644  20.098  15.531 -0.38 +0.00    -0.030 C  
DOCKED: ATOM     25  C   UNL     1      10.474  20.564  15.991 -0.40 +0.00    -0.001 C  
DOCKED: ENDBRANCH  15  25
DOCKED: ENDBRANCH  14  22
DOCKED: ENDBRANCH   1  14
DOCKED: TORSDOF 6
DOCKED: TER
DOCKED: ENDMDL
________________________________________________________________________________


    FINAL DOCKED STATE:
    ________________________


Run:   6 / 50
Time taken for this run:   0.000s

DOCKED: MODEL        6
DOCKED: USER    Run = 6
DOCKED: USER
DOCKED: USER    Estimated Free Energy of Binding    =  -3.77 kcal/mol  [=(1)+(2)+(3)-(4)]
DOCKED: USER
DOCKED: USER    (1) Final Intermolecular Energy     =  -5.56 kcal/mol
DOCKED: USER        vdW + Hbond + desolv Energy     =  -5.53 kcal/mol
DOCKED: USER        Electrostatic Energy            =  -0.02 kcal/mol
DOCKED: USER        Moving Ligand-Fixed Receptor    =  -5.56 kcal/mol
DOCKED: USER        Moving Ligand-Moving Receptor   =  +0.00 kcal/mol
DOCKED: USER    (2) Final Total Internal Energy     =  -2.52 kcal/mol
DOCKED: USER    (3) Torsional Free Energy           =  +1.79 kcal/mol
DOCKED: USER    (4) Unbound System's Energy         =  -2.52 kcal/mol
DOCKED: USER
DOCKED: USER
DOCKED: REMARK  Name = 
DOCKED: REMARK  11 active torsions:
DOCKED: REMARK  status: ('A' for Active; 'I' for Inactive)
DOCKED: REMARK    1  A    between atoms: C_1  and  C_2
DOCKED: REMARK    2  A    between atoms: C_3  and  C_4
DOCKED: REMARK    3  A    between atoms: C_6  and  C_7
DOCKED: REMARK    4  A    between atoms: C_8  and  C_9
DOCKED: REMARK    5  A    between atoms: C_11  and  C_12
DOCKED: REMARK    6  A    between atoms: C_12  and  C_13
DOCKED: REMARK    7  A    between atoms: C_13  and  C_14
DOCKED: REMARK    8  A    between atoms: C_14  and  C_15
DOCKED: REMARK    9  A    between atoms: C_14  and  N_16
DOCKED: REMARK   10  A    between atoms: N_16  and  C_17
DOCKED: REMARK   11  A    between atoms: C_20  and  C_21
DOCKED: REMARK                            x       y       z     vdW  Elec       q    Type
DOCKED: REMARK                         _______ _______ _______ _____ _____    ______ ____
DOCKED: USER                              x       y       z     vdW  Elec       q    Type
DOCKED: USER                           _______ _______ _______ _____ _____    ______ ____
DOCKED: ROOT
DOCKED: ATOM      1  C   UNL     1       8.409  23.501  15.932 -0.26 -0.01    +0.022 C  
DOCKED: ENDROOT
DOCKED: BRANCH   1   2
DOCKED: ATOM      2  C   UNL     1       7.229  22.917  16.745 -0.24 -0.03    +0.067 C  
DOCKED: ATOM      3  C   UNL     1       5.899  23.128  16.007 -0.30 -0.01    +0.028 C  
DOCKED: BRANCH   2   4
DOCKED: ATOM      4  N   UNL     1       7.454  21.480  16.951 -0.07 +0.09    -0.340 N  
DOCKED: ATOM      5  H   UNL     1       7.399  20.925  16.094 +0.05 -0.03    +0.146 HD 
DOCKED: BRANCH   4   6
DOCKED: ATOM      6  C   UNL     1       8.543  21.043  17.732 -0.10 -0.01    +0.046 A  
DOCKED: ATOM      7  C   UNL     1       8.726  21.468  19.055 -0.04 -0.01    +0.024 A  
DOCKED: ATOM      8  C   UNL     1       9.766  20.980  19.849 -0.04 -0.00    +0.005 A  
DOCKED: ATOM      9  C   UNL     1      10.665  20.042  19.344 -0.09 +0.01    -0.049 A  
DOCKED: ATOM     10  C   UNL     1      11.790  19.543  20.197 -0.11 -0.01    +0.044 C  
DOCKED: ATOM     11  C   UNL     1      10.487  19.574  18.039 -0.17 -0.00    +0.025 A  
DOCKED: ATOM     12  C   UNL     1       9.433  20.060  17.252 -0.19 -0.01    +0.062 A  
DOCKED: ATOM     13 CL   UNL     1       9.271  19.439  15.640 -0.49 +0.01    -0.082 Cl 
DOCKED: ENDBRANCH   4   6
DOCKED: ENDBRANCH   2   4
DOCKED: ENDBRANCH   1   2
DOCKED: BRANCH   1  14
DOCKED: ATOM     14  C   UNL     1       9.452  24.171  16.841 -0.27 -0.00    +0.010 C  
DOCKED: BRANCH  14  22
DOCKED: ATOM     15  C   UNL     1      11.889  24.165  17.601 -0.19 +0.00    -0.048 C  
DOCKED: ATOM     16  C   UNL     1      12.824  23.278  17.964 -0.18 +0.00    -0.020 C  
DOCKED: ATOM     17  C   UNL     1      13.079  21.947  17.317 -0.32 -0.00    +0.012 C  
DOCKED: ATOM     18  C   UNL     1      14.569  21.852  16.974 -0.36 -0.00    +0.012 C  
DOCKED: ATOM     19  C   UNL     1      12.116  21.552  16.162 -0.42 +0.00    -0.007 C  
DOCKED: ATOM     20  C   UNL     1      12.797  20.985  14.905 -0.43 -0.00    +0.008 C  
DOCKED: ATOM     21  C   UNL     1      11.073  22.589  15.708 -0.38 +0.00    +0.012 C  
DOCKED: ATOM     22  C   UNL     1      10.932  23.922  16.464 -0.32 -0.00    +0.019 C  
DOCKED: BRANCH  15  25
DOCKED: ATOM     23  C   UNL     1      11.625  27.976  18.195 -0.19 -0.01    +0.035 C  
DOCKED: ATOM     24  C   UNL     1      11.636  26.635  17.533 -0.22 +0.00    -0.030 C  
DOCKED: ATOM     25  C   UNL     1      11.830  25.490  18.202 -0.18 +0.00    -0.001 C  
DOCKED: ENDBRANCH  15  25
DOCKED: ENDBRANCH  14  22
DOCKED: ENDBRANCH   1  14
DOCKED: TORSDOF 6
DOCKED: TER
DOCKED: ENDMDL
________________________________________________________________________________


    FINAL DOCKED STATE:
    ________________________


Run:   7 / 50
Time taken for this run:   0.000s

DOCKED: MODEL        7
DOCKED: USER    Run = 7
DOCKED: USER
DOCKED: USER    Estimated Free Energy of Binding    =  -4.00 kcal/mol  [=(1)+(2)+(3)-(4)]
DOCKED: USER
DOCKED: USER    (1) Final Intermolecular Energy     =  -5.79 kcal/mol
DOCKED: USER        vdW + Hbond + desolv Energy     =  -5.82 kcal/mol
DOCKED: USER        Electrostatic Energy            =  +0.03 kcal/mol
DOCKED: USER        Moving Ligand-Fixed Receptor    =  -5.79 kcal/mol
DOCKED: USER        Moving Ligand-Moving Receptor   =  +0.00 kcal/mol
DOCKED: USER    (2) Final Total Internal Energy     =  -2.35 kcal/mol
DOCKED: USER    (3) Torsional Free Energy           =  +1.79 kcal/mol
DOCKED: USER    (4) Unbound System's Energy         =  -2.35 kcal/mol
DOCKED: USER
DOCKED: USER
DOCKED: REMARK  Name = 
DOCKED: REMARK  11 active torsions:
DOCKED: REMARK  status: ('A' for Active; 'I' for Inactive)
DOCKED: REMARK    1  A    between atoms: C_1  and  C_2
DOCKED: REMARK    2  A    between atoms: C_3  and  C_4
DOCKED: REMARK    3  A    between atoms: C_6  and  C_7
DOCKED: REMARK    4  A    between atoms: C_8  and  C_9
DOCKED: REMARK    5  A    between atoms: C_11  and  C_12
DOCKED: REMARK    6  A    between atoms: C_12  and  C_13
DOCKED: REMARK    7  A    between atoms: C_13  and  C_14
DOCKED: REMARK    8  A    between atoms: C_14  and  C_15
DOCKED: REMARK    9  A    between atoms: C_14  and  N_16
DOCKED: REMARK   10  A    between atoms: N_16  and  C_17
DOCKED: REMARK   11  A    between atoms: C_20  and  C_21
DOCKED: REMARK                            x       y       z     vdW  Elec       q    Type
DOCKED: REMARK                         _______ _______ _______ _____ _____    ______ ____
DOCKED: USER                              x       y       z     vdW  Elec       q    Type
DOCKED: USER                           _______ _______ _______ _____ _____    ______ ____
DOCKED: ROOT
DOCKED: ATOM      1  C   UNL     1       7.302  21.681  16.656 -0.25 -0.01    +0.022 C  
DOCKED: ENDROOT
DOCKED: BRANCH   1   2
DOCKED: ATOM      2  C   UNL     1       7.340  23.205  16.392 -0.28 -0.03    +0.067 C  
DOCKED: ATOM      3  C   UNL     1       5.927  23.803  16.435 -0.26 -0.02    +0.028 C  
DOCKED: BRANCH   2   4
DOCKED: ATOM      4  N   UNL     1       8.177  23.847  17.415 -0.10 +0.18    -0.340 N  
DOCKED: ATOM      5  H   UNL     1       7.776  23.821  18.354 +0.03 -0.08    +0.146 HD 
DOCKED: BRANCH   4   6
DOCKED: ATOM      6  C   UNL     1       9.556  23.561  17.477 -0.16 -0.01    +0.046 A  
DOCKED: ATOM      7  C   UNL     1      10.486  24.205  16.650 -0.28 -0.00    +0.024 A  
DOCKED: ATOM      8  C   UNL     1      11.858  23.971  16.763 -0.21 +0.00    +0.005 A  
DOCKED: ATOM      9  C   UNL     1      12.351  23.078  17.713 -0.16 +0.00    -0.049 A  
DOCKED: ATOM     10  C   UNL     1      13.823  22.817  17.809 -0.25 -0.00    +0.044 C  
DOCKED: ATOM     11  C   UNL     1      11.450  22.446  18.575 -0.09 -0.00    +0.025 A  
DOCKED: ATOM     12  C   UNL     1      10.074  22.697  18.463 -0.06 -0.01    +0.062 A  
DOCKED: ATOM     13 CL   UNL     1       9.010  21.878  19.562 -0.04 +0.02    -0.082 Cl 
DOCKED: ENDBRANCH   4   6
DOCKED: ENDBRANCH   2   4
DOCKED: ENDBRANCH   1   2
DOCKED: BRANCH   1  14
DOCKED: ATOM     14  C   UNL     1       8.145  20.903  15.632 -0.34 -0.00    +0.010 C  
DOCKED: BRANCH  14  22
DOCKED: ATOM     15  C   UNL     1       9.718  19.076  16.470 -0.35 +0.01    -0.048 C  
DOCKED: ATOM     16  C   UNL     1       9.910  18.347  17.578 -0.25 +0.00    -0.020 C  
DOCKED: ATOM     17  C   UNL     1       8.835  17.740  18.433 -0.20 -0.00    +0.012 C  
DOCKED: ATOM     18  C   UNL     1       9.150  16.252  18.623 -0.23 -0.00    +0.012 C  
DOCKED: ATOM     19  C   UNL     1       7.371  18.050  18.015 -0.17 +0.00    -0.007 C  
DOCKED: ATOM     20  C   UNL     1       6.423  16.839  18.000 -0.20 -0.00    +0.008 C  
DOCKED: ATOM     21  C   UNL     1       7.146  18.843  16.715 -0.27 -0.00    +0.012 C  
DOCKED: ATOM     22  C   UNL     1       8.349  19.398  15.934 -0.33 -0.00    +0.019 C  
DOCKED: BRANCH  15  25
DOCKED: ATOM     23  C   UNL     1      12.684  20.994  14.899 -0.44 -0.00    +0.035 C  
DOCKED: ATOM     24  C   UNL     1      11.570  20.596  15.814 -0.43 +0.00    -0.030 C  
DOCKED: ATOM     25  C   UNL     1      10.836  19.488  15.634 -0.51 +0.00    -0.001 C  
DOCKED: ENDBRANCH  15  25
DOCKED: ENDBRANCH  14  22
DOCKED: ENDBRANCH   1  14
DOCKED: TORSDOF 6
DOCKED: TER
DOCKED: ENDMDL
________________________________________________________________________________


    FINAL DOCKED STATE:
    ________________________


Run:   8 / 50
Time taken for this run:   0.000s

DOCKED: MODEL        8
DOCKED: USER    Run = 8
DOCKED: USER
DOCKED: USER    Estimated Free Energy of Binding    =  -3.26 kcal/mol  [=(1)+(2)+(3)-(4)]
DOCKED: USER
DOCKED: USER    (1) Final Intermolecular Energy     =  -5.05 kcal/mol
DOCKED: USER        vdW + Hbond + desolv Energy     =  -5.04 kcal/mol
DOCKED: USER        Electrostatic Energy            =  -0.01 kcal/mol
DOCKED: USER        Moving Ligand-Fixed Receptor    =  -5.05 kcal/mol
DOCKED: USER        Moving Ligand-Moving Receptor   =  +0.00 kcal/mol
DOCKED: USER    (2) Final Total Internal Energy     =  -2.87 kcal/mol
DOCKED: USER    (3) Torsional Free Energy           =  +1.79 kcal/mol
DOCKED: USER    (4) Unbound System's Energy         =  -2.87 kcal/mol
DOCKED: USER
DOCKED: USER
DOCKED: REMARK  Name = 
DOCKED: REMARK  11 active torsions:
DOCKED: REMARK  status: ('A' for Active; 'I' for Inactive)
DOCKED: REMARK    1  A    between atoms: C_1  and  C_2
DOCKED: REMARK    2  A    between atoms: C_3  and  C_4
DOCKED: REMARK    3  A    between atoms: C_6  and  C_7
DOCKED: REMARK    4  A    between atoms: C_8  and  C_9
DOCKED: REMARK    5  A    between atoms: C_11  and  C_12
DOCKED: REMARK    6  A    between atoms: C_12  and  C_13
DOCKED: REMARK    7  A    between atoms: C_13  and  C_14
DOCKED: REMARK    8  A    between atoms: C_14  and  C_15
DOCKED: REMARK    9  A    between atoms: C_14  and  N_16
DOCKED: REMARK   10  A    between atoms: N_16  and  C_17
DOCKED: REMARK   11  A    between atoms: C_20  and  C_21
DOCKED: REMARK                            x       y       z     vdW  Elec       q    Type
DOCKED: REMARK                         _______ _______ _______ _____ _____    ______ ____
DOCKED: USER                              x       y       z     vdW  Elec       q    Type
DOCKED: USER                           _______ _______ _______ _____ _____    ______ ____
DOCKED: ROOT
DOCKED: ATOM      1  C   UNL     1       7.711  19.268  17.863 -0.15 -0.00    +0.022 C  
DOCKED: ENDROOT
DOCKED: BRANCH   1   2
DOCKED: ATOM      2  C   UNL     1       8.448  18.571  19.031 -0.10 -0.01    +0.067 C  
DOCKED: ATOM      3  C   UNL     1       9.769  17.952  18.552 -0.21 -0.00    +0.028 C  
DOCKED: BRANCH   2   4
DOCKED: ATOM      4  N   UNL     1       8.722  19.560  20.083 -0.01 +0.05    -0.340 N  
DOCKED: ATOM      5  H   UNL     1       9.537  19.338  20.658 +0.01 -0.02    +0.146 HD 
DOCKED: BRANCH   4   6
DOCKED: ATOM      6  C   UNL     1       8.718  20.936  19.774 -0.03 -0.01    +0.046 A  
DOCKED: ATOM      7  C   UNL     1       7.541  21.695  19.785 -0.02 -0.01    +0.024 A  
DOCKED: ATOM      8  C   UNL     1       7.550  23.071  19.547 -0.03 -0.00    +0.005 A  
DOCKED: ATOM      9  C   UNL     1       8.745  23.740  19.289 -0.05 +0.02    -0.049 A  
DOCKED: ATOM     10  C   UNL     1       8.740  25.212  19.013 -0.13 -0.03    +0.044 C  
DOCKED: ATOM     11  C   UNL     1       9.940  23.014  19.306 -0.04 -0.01    +0.025 A  
DOCKED: ATOM     12  C   UNL     1       9.923  21.634  19.558 -0.03 -0.01    +0.062 A  
DOCKED: ATOM     13 CL   UNL     1      11.441  20.793  19.562 -0.12 +0.01    -0.082 Cl 
DOCKED: ENDBRANCH   4   6
DOCKED: ENDBRANCH   2   4
DOCKED: ENDBRANCH   1   2
DOCKED: BRANCH   1  14
DOCKED: ATOM     14  C   UNL     1       8.248  18.813  16.496 -0.27 -0.00    +0.010 C  
DOCKED: BRANCH  14  22
DOCKED: ATOM     15  C   UNL     1       8.354  21.282  15.861 -0.35 +0.01    -0.048 C  
DOCKED: ATOM     16  C   UNL     1       9.114  22.354  16.124 -0.35 +0.00    -0.020 C  
DOCKED: ATOM     17  C   UNL     1      10.612  22.371  16.226 -0.33 -0.00    +0.012 C  
DOCKED: ATOM     18  C   UNL     1      11.147  23.479  15.312 -0.28 +0.00    +0.012 C  
DOCKED: ATOM     19  C   UNL     1      11.324  20.998  16.075 -0.40 +0.00    -0.007 C  
DOCKED: ATOM     20  C   UNL     1      12.550  20.994  15.146 -0.49 -0.00    +0.008 C  
DOCKED: ATOM     21  C   UNL     1      10.460  19.774  15.723 -0.46 -0.00    +0.012 C  
DOCKED: ATOM     22  C   UNL     1       8.930  19.909  15.642 -0.39 -0.00    +0.019 C  
DOCKED: BRANCH  15  25
DOCKED: ATOM     23  C   UNL     1       4.694  22.524  15.769 -0.28 -0.01    +0.035 C  
DOCKED: ATOM     24  C   UNL     1       6.172  22.462  15.990 -0.29 +0.01    -0.030 C  
DOCKED: ATOM     25  C   UNL     1       6.921  21.409  15.635 -0.26 +0.00    -0.001 C  
DOCKED: ENDBRANCH  15  25
DOCKED: ENDBRANCH  14  22
DOCKED: ENDBRANCH   1  14
DOCKED: TORSDOF 6
DOCKED: TER
DOCKED: ENDMDL
________________________________________________________________________________


    FINAL DOCKED STATE:
    ________________________


Run:   9 / 50
Time taken for this run:   0.000s

DOCKED: MODEL        9
DOCKED: USER    Run = 9
DOCKED: USER
DOCKED: USER    Estimated Free Energy of Binding    =  -3.54 kcal/mol  [=(1)+(2)+(3)-(4)]
DOCKED: USER
DOCKED: USER    (1) Final Intermolecular Energy     =  -5.33 kcal/mol
DOCKED: USER        vdW + Hbond + desolv Energy     =  -5.31 kcal/mol
DOCKED: USER        Electrostatic Energy            =  -0.02 kcal/mol
DOCKED: USER        Moving Ligand-Fixed Receptor    =  -5.33 kcal/mol
DOCKED: USER        Moving Ligand-Moving Receptor   =  +0.00 kcal/mol
DOCKED: USER    (2) Final Total Internal Energy     =  -2.58 kcal/mol
DOCKED: USER    (3) Torsional Free Energy           =  +1.79 kcal/mol
DOCKED: USER    (4) Unbound System's Energy         =  -2.58 kcal/mol
DOCKED: USER
DOCKED: USER
DOCKED: REMARK  Name = 
DOCKED: REMARK  11 active torsions:
DOCKED: REMARK  status: ('A' for Active; 'I' for Inactive)
DOCKED: REMARK    1  A    between atoms: C_1  and  C_2
DOCKED: REMARK    2  A    between atoms: C_3  and  C_4
DOCKED: REMARK    3  A    between atoms: C_6  and  C_7
DOCKED: REMARK    4  A    between atoms: C_8  and  C_9
DOCKED: REMARK    5  A    between atoms: C_11  and  C_12
DOCKED: REMARK    6  A    between atoms: C_12  and  C_13
DOCKED: REMARK    7  A    between atoms: C_13  and  C_14
DOCKED: REMARK    8  A    between atoms: C_14  and  C_15
DOCKED: REMARK    9  A    between atoms: C_14  and  N_16
DOCKED: REMARK   10  A    between atoms: N_16  and  C_17
DOCKED: REMARK   11  A    between atoms: C_20  and  C_21
DOCKED: REMARK                            x       y       z     vdW  Elec       q    Type
DOCKED: REMARK                         _______ _______ _______ _____ _____    ______ ____
DOCKED: USER                              x       y       z     vdW  Elec       q    Type
DOCKED: USER                           _______ _______ _______ _____ _____    ______ ____
DOCKED: ROOT
DOCKED: ATOM      1  C   UNL     1      11.557  20.577  17.139 -0.25 -0.00    +0.022 C  
DOCKED: ENDROOT
DOCKED: BRANCH   1   2
DOCKED: ATOM      2  C   UNL     1      12.682  21.389  16.454 -0.37 -0.01    +0.067 C  
DOCKED: ATOM      3  C   UNL     1      12.670  21.167  14.935 -0.39 -0.00    +0.028 C  
DOCKED: BRANCH   2   4
DOCKED: ATOM      4  N   UNL     1      12.487  22.816  16.745 -0.12 -0.01    -0.340 N  
DOCKED: ATOM      5  H   UNL     1      12.732  23.434  15.968 +0.07 +0.04    +0.146 HD 
DOCKED: BRANCH   4   6
DOCKED: ATOM      6  C   UNL     1      11.288  23.255  17.342 -0.17 -0.00    +0.046 A  
DOCKED: ATOM      7  C   UNL     1      11.109  23.261  18.732 -0.07 -0.00    +0.024 A  
DOCKED: ATOM      8  C   UNL     1       9.948  23.762  19.323 -0.05 -0.00    +0.005 A  
DOCKED: ATOM      9  C   UNL     1       8.917  24.279  18.539 -0.11 +0.02    -0.049 A  
DOCKED: ATOM     10  C   UNL     1       7.667  24.792  19.183 -0.11 -0.03    +0.044 C  
DOCKED: ATOM     11  C   UNL     1       9.082  24.318  17.151 -0.20 -0.01    +0.025 A  
DOCKED: ATOM     12  C   UNL     1      10.257  23.824  16.567 -0.26 -0.01    +0.062 A  
DOCKED: ATOM     13 CL   UNL     1      10.395  23.900  14.838 -0.46 -0.00    -0.082 Cl 
DOCKED: ENDBRANCH   4   6
DOCKED: ENDBRANCH   2   4
DOCKED: ENDBRANCH   1   2
DOCKED: BRANCH   1  14
DOCKED: ATOM     14  C   UNL     1      10.790  19.703  16.132 -0.43 -0.00    +0.010 C  
DOCKED: BRANCH  14  22
DOCKED: ATOM     15  C   UNL     1       8.928  19.271  17.823 -0.18 +0.01    -0.048 C  
DOCKED: ATOM     16  C   UNL     1       8.011  19.969  18.507 -0.09 +0.00    -0.020 C  
DOCKED: ATOM     17  C   UNL     1       7.190  21.107  17.974 -0.09 -0.00    +0.012 C  
DOCKED: ATOM     18  C   UNL     1       5.714  20.820  18.269 -0.06 -0.00    +0.012 C  
DOCKED: ATOM     19  C   UNL     1       7.491  21.544  16.513 -0.28 +0.00    -0.007 C  
DOCKED: ATOM     20  C   UNL     1       6.254  21.766  15.626 -0.29 -0.00    +0.008 C  
DOCKED: ATOM     21  C   UNL     1       8.506  20.712  15.708 -0.36 -0.00    +0.012 C  
DOCKED: ATOM     22  C   UNL     1       9.270  19.562  16.386 -0.38 -0.00    +0.019 C  
DOCKED: BRANCH  15  25
DOCKED: ATOM     23  C   UNL     1       9.769  15.657  18.907 -0.22 -0.00    +0.035 C  
DOCKED: ATOM     24  C   UNL     1       9.105  16.833  18.266 -0.21 +0.00    -0.030 C  
DOCKED: ATOM     25  C   UNL     1       9.557  18.088  18.394 -0.22 +0.00    -0.001 C  
DOCKED: ENDBRANCH  15  25
DOCKED: ENDBRANCH  14  22
DOCKED: ENDBRANCH   1  14
DOCKED: TORSDOF 6
DOCKED: TER
DOCKED: ENDMDL
________________________________________________________________________________


    FINAL DOCKED STATE:
    ________________________


Run:   10 / 50
Time taken for this run:   0.000s

DOCKED: MODEL        10
DOCKED: USER    Run = 10
DOCKED: USER
DOCKED: USER    Estimated Free Energy of Binding    =  -4.05 kcal/mol  [=(1)+(2)+(3)-(4)]
DOCKED: USER
DOCKED: USER    (1) Final Intermolecular Energy     =  -5.84 kcal/mol
DOCKED: USER        vdW + Hbond + desolv Energy     =  -5.84 kcal/mol
DOCKED: USER        Electrostatic Energy            =  -0.00 kcal/mol
DOCKED: USER        Moving Ligand-Fixed Receptor    =  -5.84 kcal/mol
DOCKED: USER        Moving Ligand-Moving Receptor   =  +0.00 kcal/mol
DOCKED: USER    (2) Final Total Internal Energy     =  -2.16 kcal/mol
DOCKED: USER    (3) Torsional Free Energy           =  +1.79 kcal/mol
DOCKED: USER    (4) Unbound System's Energy         =  -2.16 kcal/mol
DOCKED: USER
DOCKED: USER
DOCKED: REMARK  Name = 
DOCKED: REMARK  11 active torsions:
DOCKED: REMARK  status: ('A' for Active; 'I' for Inactive)
DOCKED: REMARK    1  A    between atoms: C_1  and  C_2
DOCKED: REMARK    2  A    between atoms: C_3  and  C_4
DOCKED: REMARK    3  A    between atoms: C_6  and  C_7
DOCKED: REMARK    4  A    between atoms: C_8  and  C_9
DOCKED: REMARK    5  A    between atoms: C_11  and  C_12
DOCKED: REMARK    6  A    between atoms: C_12  and  C_13
DOCKED: REMARK    7  A    between atoms: C_13  and  C_14
DOCKED: REMARK    8  A    between atoms: C_14  and  C_15
DOCKED: REMARK    9  A    between atoms: C_14  and  N_16
DOCKED: REMARK   10  A    between atoms: N_16  and  C_17
DOCKED: REMARK   11  A    between atoms: C_20  and  C_21
DOCKED: REMARK                            x       y       z     vdW  Elec       q    Type
DOCKED: REMARK                         _______ _______ _______ _____ _____    ______ ____
DOCKED: USER                              x       y       z     vdW  Elec       q    Type
DOCKED: USER                           _______ _______ _______ _____ _____    ______ ____
DOCKED: ROOT
DOCKED: ATOM      1  C   UNL     1       9.090  23.736  16.296 -0.31 -0.01    +0.022 C  
DOCKED: ENDROOT
DOCKED: BRANCH   1   2
DOCKED: ATOM      2  C   UNL     1       8.088  22.557  16.304 -0.30 -0.02    +0.067 C  
DOCKED: ATOM      3  C   UNL     1       8.490  21.491  15.275 -0.27 -0.01    +0.028 C  
DOCKED: BRANCH   2   4
DOCKED: ATOM      4  N   UNL     1       8.063  21.960  17.647 -0.03 +0.09    -0.340 N  
DOCKED: ATOM      5  H   UNL     1       7.171  22.072  18.133 +0.03 -0.04    +0.146 HD 
DOCKED: BRANCH   4   6
DOCKED: ATOM      6  C   UNL     1       8.554  20.654  17.846 -0.10 -0.01    +0.046 A  
DOCKED: ATOM      7  C   UNL     1       9.802  20.411  18.435 -0.11 -0.00    +0.024 A  
DOCKED: ATOM      8  C   UNL     1      10.255  19.116  18.694 -0.15 -0.00    +0.005 A  
DOCKED: ATOM      9  C   UNL     1       9.469  18.011  18.372 -0.18 +0.00    -0.049 A  
DOCKED: ATOM     10  C   UNL     1       9.975  16.626  18.633 -0.23 -0.00    +0.044 C  
DOCKED: ATOM     11  C   UNL     1       8.205  18.223  17.814 -0.17 -0.00    +0.025 A  
DOCKED: ATOM     12  C   UNL     1       7.753  19.527  17.568 -0.14 -0.01    +0.062 A  
DOCKED: ATOM     13 CL   UNL     1       6.175  19.721  16.872 -0.23 +0.01    -0.082 Cl 
DOCKED: ENDBRANCH   4   6
DOCKED: ENDBRANCH   2   4
DOCKED: ENDBRANCH   1   2
DOCKED: BRANCH   1  14
DOCKED: ATOM     14  C   UNL     1      10.476  23.304  15.789 -0.41 -0.00    +0.010 C  
DOCKED: BRANCH  14  22
DOCKED: ATOM     15  C   UNL     1      12.503  21.815  16.218 -0.39 +0.00    -0.048 C  
DOCKED: ATOM     16  C   UNL     1      13.785  21.946  16.586 -0.32 +0.00    -0.020 C  
DOCKED: ATOM     17  C   UNL     1      14.310  22.875  17.642 -0.30 -0.00    +0.012 C  
DOCKED: ATOM     18  C   UNL     1      15.171  22.063  18.616 -0.23 -0.00    +0.012 C  
DOCKED: ATOM     19  C   UNL     1      13.265  23.809  18.314 -0.16 +0.00    -0.007 C  
DOCKED: ATOM     20  C   UNL     1      13.351  23.891  19.848 -0.05 -0.00    +0.008 C  
DOCKED: ATOM     21  C   UNL     1      11.786  23.625  17.932 -0.16 -0.00    +0.012 C  
DOCKED: ATOM     22  C   UNL     1      11.392  22.623  16.833 -0.27 -0.00    +0.019 C  
DOCKED: BRANCH  15  25
DOCKED: ATOM     23  C   UNL     1      10.824  18.746  14.573 -0.41 -0.01    +0.035 C  
DOCKED: ATOM     24  C   UNL     1      11.186  19.817  15.552 -0.46 +0.00    -0.030 C  
DOCKED: ATOM     25  C   UNL     1      12.086  20.775  15.288 -0.48 +0.00    -0.001 C  
DOCKED: ENDBRANCH  15  25
DOCKED: ENDBRANCH  14  22
DOCKED: ENDBRANCH   1  14
DOCKED: TORSDOF 6
DOCKED: TER
DOCKED: ENDMDL
________________________________________________________________________________


    FINAL DOCKED STATE:
    ________________________


Run:   11 / 50
Time taken for this run:   0.000s

DOCKED: MODEL        11
DOCKED: USER    Run = 11
DOCKED: USER
DOCKED: USER    Estimated Free Energy of Binding    =  -3.43 kcal/mol  [=(1)+(2)+(3)-(4)]
DOCKED: USER
DOCKED: USER    (1) Final Intermolecular Energy     =  -5.22 kcal/mol
DOCKED: USER        vdW + Hbond + desolv Energy     =  -5.23 kcal/mol
DOCKED: USER        Electrostatic Energy            =  +0.01 kcal/mol
DOCKED: USER        Moving Ligand-Fixed Receptor    =  -5.22 kcal/mol
DOCKED: USER        Moving Ligand-Moving Receptor   =  +0.00 kcal/mol
DOCKED: USER    (2) Final Total Internal Energy     =  -2.71 kcal/mol
DOCKED: USER    (3) Torsional Free Energy           =  +1.79 kcal/mol
DOCKED: USER    (4) Unbound System's Energy         =  -2.71 kcal/mol
DOCKED: USER
DOCKED: USER
DOCKED: REMARK  Name = 
DOCKED: REMARK  11 active torsions:
DOCKED: REMARK  status: ('A' for Active; 'I' for Inactive)
DOCKED: REMARK    1  A    between atoms: C_1  and  C_2
DOCKED: REMARK    2  A    between atoms: C_3  and  C_4
DOCKED: REMARK    3  A    between atoms: C_6  and  C_7
DOCKED: REMARK    4  A    between atoms: C_8  and  C_9
DOCKED: REMARK    5  A    between atoms: C_11  and  C_12
DOCKED: REMARK    6  A    between atoms: C_12  and  C_13
DOCKED: REMARK    7  A    between atoms: C_13  and  C_14
DOCKED: REMARK    8  A    between atoms: C_14  and  C_15
DOCKED: REMARK    9  A    between atoms: C_14  and  N_16
DOCKED: REMARK   10  A    between atoms: N_16  and  C_17
DOCKED: REMARK   11  A    between atoms: C_20  and  C_21
DOCKED: REMARK                            x       y       z     vdW  Elec       q    Type
DOCKED: REMARK                         _______ _______ _______ _____ _____    ______ ____
DOCKED: USER                              x       y       z     vdW  Elec       q    Type
DOCKED: USER                           _______ _______ _______ _____ _____    ______ ____
DOCKED: ROOT
DOCKED: ATOM      1  C   UNL     1      11.524  22.489  15.986 -0.36 +0.00    +0.022 C  
DOCKED: ENDROOT
DOCKED: BRANCH   1   2
DOCKED: ATOM      2  C   UNL     1      11.909  21.105  15.413 -0.40 -0.00    +0.067 C  
DOCKED: ATOM      3  C   UNL     1      13.429  20.994  15.228 -0.23 -0.00    +0.028 C  
DOCKED: BRANCH   2   4
DOCKED: ATOM      4  N   UNL     1      11.448  20.059  16.336 -0.13 +0.05    -0.340 N  
DOCKED: ATOM      5  H   UNL     1      12.063  19.917  17.140 +0.06 -0.02    +0.146 HD 
DOCKED: BRANCH   4   6
DOCKED: ATOM      6  C   UNL     1      10.102  20.033  16.755 -0.27 -0.01    +0.046 A  
DOCKED: ATOM      7  C   UNL     1       9.083  19.518  15.943 -0.36 -0.00    +0.024 A  
DOCKED: ATOM      8  C   UNL     1       7.762  19.429  16.388 -0.27 -0.00    +0.005 A  
DOCKED: ATOM      9  C   UNL     1       7.413  19.854  17.669 -0.12 +0.01    -0.049 A  
DOCKED: ATOM     10  C   UNL     1       5.989  19.775  18.126 -0.08 -0.01    +0.044 C  
DOCKED: ATOM     11  C   UNL     1       8.416  20.340  18.513 -0.07 -0.00    +0.025 A  
DOCKED: ATOM     12  C   UNL     1       9.742  20.415  18.063 -0.12 -0.01    +0.062 A  
DOCKED: ATOM     13 CL   UNL     1      10.937  21.030  19.161 -0.13 +0.01    -0.082 Cl 
DOCKED: ENDBRANCH   4   6
DOCKED: ENDBRANCH   2   4
DOCKED: ENDBRANCH   1   2
DOCKED: BRANCH   1  14
DOCKED: ATOM     14  C   UNL     1      10.262  23.055  15.314 -0.39 -0.00    +0.010 C  
DOCKED: BRANCH  14  22
DOCKED: ATOM     15  C   UNL     1       8.288  23.570  16.847 -0.26 +0.02    -0.048 C  
DOCKED: ATOM     16  C   UNL     1       8.058  23.790  18.148 -0.15 +0.01    -0.020 C  
DOCKED: ATOM     17  C   UNL     1       8.918  24.605  19.071 -0.11 -0.01    +0.012 C  
DOCKED: ATOM     18  C   UNL     1       8.030  25.632  19.782 -0.10 -0.01    +0.012 C  
DOCKED: ATOM     19  C   UNL     1      10.224  25.183  18.458 -0.16 +0.00    -0.007 C  
DOCKED: ATOM     20  C   UNL     1      10.502  26.661  18.782 -0.14 -0.01    +0.008 C  
DOCKED: ATOM     21  C   UNL     1      10.465  24.976  16.952 -0.28 -0.00    +0.012 C  
DOCKED: ATOM     22  C   UNL     1       9.488  24.122  16.126 -0.26 -0.01    +0.019 C  
DOCKED: BRANCH  15  25
DOCKED: ATOM     23  C   UNL     1       5.031  22.088  15.382 -0.32 -0.01    +0.035 C  
DOCKED: ATOM     24  C   UNL     1       5.990  22.835  16.253 -0.27 +0.01    -0.030 C  
DOCKED: ATOM     25  C   UNL     1       7.307  22.890  16.011 -0.32 +0.00    -0.001 C  
DOCKED: ENDBRANCH  15  25
DOCKED: ENDBRANCH  14  22
DOCKED: ENDBRANCH   1  14
DOCKED: TORSDOF 6
DOCKED: TER
DOCKED: ENDMDL
________________________________________________________________________________


    FINAL DOCKED STATE:
    ________________________


Run:   12 / 50
Time taken for this run:   0.000s

DOCKED: MODEL        12
DOCKED: USER    Run = 12
DOCKED: USER
DOCKED: USER    Estimated Free Energy of Binding    =  -4.00 kcal/mol  [=(1)+(2)+(3)-(4)]
DOCKED: USER
DOCKED: USER    (1) Final Intermolecular Energy     =  -5.79 kcal/mol
DOCKED: USER        vdW + Hbond + desolv Energy     =  -5.79 kcal/mol
DOCKED: USER        Electrostatic Energy            =  +0.00 kcal/mol
DOCKED: USER        Moving Ligand-Fixed Receptor    =  -5.79 kcal/mol
DOCKED: USER        Moving Ligand-Moving Receptor   =  +0.00 kcal/mol
DOCKED: USER    (2) Final Total Internal Energy     =  -2.39 kcal/mol
DOCKED: USER    (3) Torsional Free Energy           =  +1.79 kcal/mol
DOCKED: USER    (4) Unbound System's Energy         =  -2.39 kcal/mol
DOCKED: USER
DOCKED: USER
DOCKED: REMARK  Name = 
DOCKED: REMARK  11 active torsions:
DOCKED: REMARK  status: ('A' for Active; 'I' for Inactive)
DOCKED: REMARK    1  A    between atoms: C_1  and  C_2
DOCKED: REMARK    2  A    between atoms: C_3  and  C_4
DOCKED: REMARK    3  A    between atoms: C_6  and  C_7
DOCKED: REMARK    4  A    between atoms: C_8  and  C_9
DOCKED: REMARK    5  A    between atoms: C_11  and  C_12
DOCKED: REMARK    6  A    between atoms: C_12  and  C_13
DOCKED: REMARK    7  A    between atoms: C_13  and  C_14
DOCKED: REMARK    8  A    between atoms: C_14  and  C_15
DOCKED: REMARK    9  A    between atoms: C_14  and  N_16
DOCKED: REMARK   10  A    between atoms: N_16  and  C_17
DOCKED: REMARK   11  A    between atoms: C_20  and  C_21
DOCKED: REMARK                            x       y       z     vdW  Elec       q    Type
DOCKED: REMARK                         _______ _______ _______ _____ _____    ______ ____
DOCKED: USER                              x       y       z     vdW  Elec       q    Type
DOCKED: USER                           _______ _______ _______ _____ _____    ______ ____
DOCKED: ROOT
DOCKED: ATOM      1  C   UNL     1       9.537  20.349  15.882 -0.38 -0.00    +0.022 C  
DOCKED: ENDROOT
DOCKED: BRANCH   1   2
DOCKED: ATOM      2  C   UNL     1      11.017  19.909  15.780 -0.42 -0.01    +0.067 C  
DOCKED: ATOM      3  C   UNL     1      11.168  18.710  14.834 -0.47 -0.01    +0.028 C  
DOCKED: BRANCH   2   4
DOCKED: ATOM      4  N   UNL     1      11.818  21.035  15.279 -0.20 +0.02    -0.340 N  
DOCKED: ATOM      5  H   UNL     1      11.880  21.077  14.259 +0.08 +0.00    +0.146 HD 
DOCKED: BRANCH   4   6
DOCKED: ATOM      6  C   UNL     1      11.613  22.330  15.796 -0.32 +0.00    +0.046 A  
DOCKED: ATOM      7  C   UNL     1      10.656  23.202  15.259 -0.35 +0.00    +0.024 A  
DOCKED: ATOM      8  C   UNL     1      10.408  24.457  15.818 -0.31 -0.00    +0.005 A  
DOCKED: ATOM      9  C   UNL     1      11.111  24.887  16.942 -0.23 +0.00    -0.049 A  
DOCKED: ATOM     10  C   UNL     1      10.852  26.244  17.519 -0.23 -0.02    +0.044 C  
DOCKED: ATOM     11  C   UNL     1      12.048  24.025  17.520 -0.17 -0.00    +0.025 A  
DOCKED: ATOM     12  C   UNL     1      12.283  22.761  16.960 -0.22 -0.00    +0.062 A  
DOCKED: ATOM     13 CL   UNL     1      13.460  21.741  17.725 -0.39 +0.01    -0.082 Cl 
DOCKED: ENDBRANCH   4   6
DOCKED: ENDBRANCH   2   4
DOCKED: ENDBRANCH   1   2
DOCKED: BRANCH   1  14
DOCKED: ATOM     14  C   UNL     1       9.095  20.534  17.343 -0.20 -0.00    +0.010 C  
DOCKED: BRANCH  14  22
DOCKED: ATOM     15  C   UNL     1       8.010  22.808  17.744 -0.14 +0.02    -0.048 C  
DOCKED: ATOM     16  C   UNL     1       7.343  23.738  17.048 -0.24 +0.01    -0.020 C  
DOCKED: ATOM     17  C   UNL     1       6.289  23.478  16.010 -0.27 -0.01    +0.012 C  
DOCKED: ATOM     18  C   UNL     1       5.049  24.307  16.360 -0.27 -0.01    +0.012 C  
DOCKED: ATOM     19  C   UNL     1       6.007  21.986  15.679 -0.30 +0.00    -0.007 C  
DOCKED: ATOM     20  C   UNL     1       4.520  21.601  15.608 -0.28 -0.00    +0.008 C  
DOCKED: ATOM     21  C   UNL     1       6.733  20.915  16.513 -0.24 -0.00    +0.012 C  
DOCKED: ATOM     22  C   UNL     1       7.786  21.332  17.554 -0.14 -0.00    +0.019 C  
DOCKED: BRANCH  15  25
DOCKED: ATOM     23  C   UNL     1       9.520  23.601  21.213 -0.01 -0.01    +0.035 C  
DOCKED: ATOM     24  C   UNL     1       8.576  23.175  20.135 -0.02 +0.01    -0.030 C  
DOCKED: ATOM     25  C   UNL     1       8.902  23.176  18.835 -0.08 +0.00    -0.001 C  
DOCKED: ENDBRANCH  15  25
DOCKED: ENDBRANCH  14  22
DOCKED: ENDBRANCH   1  14
DOCKED: TORSDOF 6
DOCKED: TER
DOCKED: ENDMDL
________________________________________________________________________________


    FINAL DOCKED STATE:
    ________________________


Run:   13 / 50
Time taken for this run:   0.000s

DOCKED: MODEL        13
DOCKED: USER    Run = 13
DOCKED: USER
DOCKED: USER    Estimated Free Energy of Binding    =  -3.75 kcal/mol  [=(1)+(2)+(3)-(4)]
DOCKED: USER
DOCKED: USER    (1) Final Intermolecular Energy     =  -5.54 kcal/mol
DOCKED: USER        vdW + Hbond + desolv Energy     =  -5.53 kcal/mol
DOCKED: USER        Electrostatic Energy            =  -0.00 kcal/mol
DOCKED: USER        Moving Ligand-Fixed Receptor    =  -5.54 kcal/mol
DOCKED: USER        Moving Ligand-Moving Receptor   =  +0.00 kcal/mol
DOCKED: USER    (2) Final Total Internal Energy     =  -2.66 kcal/mol
DOCKED: USER    (3) Torsional Free Energy           =  +1.79 kcal/mol
DOCKED: USER    (4) Unbound System's Energy         =  -2.66 kcal/mol
DOCKED: USER
DOCKED: USER
DOCKED: REMARK  Name = 
DOCKED: REMARK  11 active torsions:
DOCKED: REMARK  status: ('A' for Active; 'I' for Inactive)
DOCKED: REMARK    1  A    between atoms: C_1  and  C_2
DOCKED: REMARK    2  A    between atoms: C_3  and  C_4
DOCKED: REMARK    3  A    between atoms: C_6  and  C_7
DOCKED: REMARK    4  A    between atoms: C_8  and  C_9
DOCKED: REMARK    5  A    between atoms: C_11  and  C_12
DOCKED: REMARK    6  A    between atoms: C_12  and  C_13
DOCKED: REMARK    7  A    between atoms: C_13  and  C_14
DOCKED: REMARK    8  A    between atoms: C_14  and  C_15
DOCKED: REMARK    9  A    between atoms: C_14  and  N_16
DOCKED: REMARK   10  A    between atoms: N_16  and  C_17
DOCKED: REMARK   11  A    between atoms: C_20  and  C_21
DOCKED: REMARK                            x       y       z     vdW  Elec       q    Type
DOCKED: REMARK                         _______ _______ _______ _____ _____    ______ ____
DOCKED: USER                              x       y       z     vdW  Elec       q    Type
DOCKED: USER                           _______ _______ _______ _____ _____    ______ ____
DOCKED: ROOT
DOCKED: ATOM      1  C   UNL     1       9.669  20.226  15.963 -0.40 -0.00    +0.022 C  
DOCKED: ENDROOT
DOCKED: BRANCH   1   2
DOCKED: ATOM      2  C   UNL     1      11.160  19.845  15.804 -0.42 -0.01    +0.067 C  
DOCKED: ATOM      3  C   UNL     1      11.320  18.644  14.860 -0.37 -0.01    +0.028 C  
DOCKED: BRANCH   2   4
DOCKED: ATOM      4  N   UNL     1      11.893  20.997  15.261 -0.22 +0.02    -0.340 N  
DOCKED: ATOM      5  H   UNL     1      11.909  21.035  14.240 +0.07 -0.00    +0.146 HD 
DOCKED: BRANCH   4   6
DOCKED: ATOM      6  C   UNL     1      11.662  22.287  15.782 -0.32 +0.00    +0.046 A  
DOCKED: ATOM      7  C   UNL     1      10.668  23.129  15.264 -0.33 +0.00    +0.024 A  
DOCKED: ATOM      8  C   UNL     1      10.394  24.377  15.826 -0.33 -0.00    +0.005 A  
DOCKED: ATOM      9  C   UNL     1      11.108  24.830  16.934 -0.23 +0.00    -0.049 A  
DOCKED: ATOM     10  C   UNL     1      10.822  26.180  17.514 -0.23 -0.02    +0.044 C  
DOCKED: ATOM     11  C   UNL     1      12.083  23.998  17.493 -0.17 -0.00    +0.025 A  
DOCKED: ATOM     12  C   UNL     1      12.343  22.740  16.929 -0.23 -0.00    +0.062 A  
DOCKED: ATOM     13 CL   UNL     1      13.567  21.758  17.671 -0.41 +0.01    -0.082 Cl 
DOCKED: ENDBRANCH   4   6
DOCKED: ENDBRANCH   2   4
DOCKED: ENDBRANCH   1   2
DOCKED: BRANCH   1  14
DOCKED: ATOM     14  C   UNL     1       9.253  20.298  17.442 -0.20 -0.00    +0.010 C  
DOCKED: BRANCH  14  22
DOCKED: ATOM     15  C   UNL     1       8.316  22.477  18.382 -0.08 +0.01    -0.048 C  
DOCKED: ATOM     16  C   UNL     1       7.822  23.636  17.927 -0.16 +0.01    -0.020 C  
DOCKED: ATOM     17  C   UNL     1       6.893  23.802  16.759 -0.25 -0.01    +0.012 C  
DOCKED: ATOM     18  C   UNL     1       5.690  24.637  17.213 -0.19 -0.01    +0.012 C  
DOCKED: ATOM     19  C   UNL     1       6.534  22.506  15.980 -0.30 +0.00    -0.007 C  
DOCKED: ATOM     20  C   UNL     1       5.041  22.331  15.652 -0.31 -0.00    +0.008 C  
DOCKED: ATOM     21  C   UNL     1       7.057  21.168  16.530 -0.25 -0.00    +0.012 C  
DOCKED: ATOM     22  C   UNL     1       7.998  21.150  17.747 -0.12 -0.00    +0.019 C  
DOCKED: BRANCH  15  25
DOCKED: ATOM     23  C   UNL     1      10.786  23.197  21.268 -0.01 -0.01    +0.035 C  
DOCKED: ATOM     24  C   UNL     1       9.990  23.328  20.009 -0.03 +0.01    -0.030 C  
DOCKED: ATOM     25  C   UNL     1       9.088  22.417  19.615 -0.04 +0.00    -0.001 C  
DOCKED: ENDBRANCH  15  25
DOCKED: ENDBRANCH  14  22
DOCKED: ENDBRANCH   1  14
DOCKED: TORSDOF 6
DOCKED: TER
DOCKED: ENDMDL
________________________________________________________________________________


    FINAL DOCKED STATE:
    ________________________


Run:   14 / 50
Time taken for this run:   0.000s

DOCKED: MODEL        14
DOCKED: USER    Run = 14
DOCKED: USER
DOCKED: USER    Estimated Free Energy of Binding    =  -3.54 kcal/mol  [=(1)+(2)+(3)-(4)]
DOCKED: USER
DOCKED: USER    (1) Final Intermolecular Energy     =  -5.33 kcal/mol
DOCKED: USER        vdW + Hbond + desolv Energy     =  -5.33 kcal/mol
DOCKED: USER        Electrostatic Energy            =  -0.01 kcal/mol
DOCKED: USER        Moving Ligand-Fixed Receptor    =  -5.33 kcal/mol
DOCKED: USER        Moving Ligand-Moving Receptor   =  +0.00 kcal/mol
DOCKED: USER    (2) Final Total Internal Energy     =  -2.61 kcal/mol
DOCKED: USER    (3) Torsional Free Energy           =  +1.79 kcal/mol
DOCKED: USER    (4) Unbound System's Energy         =  -2.61 kcal/mol
DOCKED: USER
DOCKED: USER
DOCKED: REMARK  Name = 
DOCKED: REMARK  11 active torsions:
DOCKED: REMARK  status: ('A' for Active; 'I' for Inactive)
DOCKED: REMARK    1  A    between atoms: C_1  and  C_2
DOCKED: REMARK    2  A    between atoms: C_3  and  C_4
DOCKED: REMARK    3  A    between atoms: C_6  and  C_7
DOCKED: REMARK    4  A    between atoms: C_8  and  C_9
DOCKED: REMARK    5  A    between atoms: C_11  and  C_12
DOCKED: REMARK    6  A    between atoms: C_12  and  C_13
DOCKED: REMARK    7  A    between atoms: C_13  and  C_14
DOCKED: REMARK    8  A    between atoms: C_14  and  C_15
DOCKED: REMARK    9  A    between atoms: C_14  and  N_16
DOCKED: REMARK   10  A    between atoms: N_16  and  C_17
DOCKED: REMARK   11  A    between atoms: C_20  and  C_21
DOCKED: REMARK                            x       y       z     vdW  Elec       q    Type
DOCKED: REMARK                         _______ _______ _______ _____ _____    ______ ____
DOCKED: USER                              x       y       z     vdW  Elec       q    Type
DOCKED: USER                           _______ _______ _______ _____ _____    ______ ____
DOCKED: ROOT
DOCKED: ATOM      1  C   UNL     1      20.220  30.005  13.844 -0.13 -0.01    +0.022 C  
DOCKED: ENDROOT
DOCKED: BRANCH   1   2
DOCKED: ATOM      2  C   UNL     1      18.890  29.244  13.634 -0.18 -0.03    +0.067 C  
DOCKED: ATOM      3  C   UNL     1      17.964  29.417  14.845 -0.24 -0.01    +0.028 C  
DOCKED: BRANCH   2   4
DOCKED: ATOM      4  N   UNL     1      18.227  29.763  12.429 -0.14 +0.36    -0.340 N  
DOCKED: ATOM      5  H   UNL     1      17.407  30.341  12.625 -0.34 -0.30    +0.146 HD 
DOCKED: BRANCH   4   6
DOCKED: ATOM      6  C   UNL     1      18.992  30.354  11.404 -0.32 -0.03    +0.046 A  
DOCKED: ATOM      7  C   UNL     1      19.459  29.618  10.307 -0.41 -0.01    +0.024 A  
DOCKED: ATOM      8  C   UNL     1      20.156  30.220   9.258 -0.35 -0.00    +0.005 A  
DOCKED: ATOM      9  C   UNL     1      20.413  31.590   9.270 -0.28 -0.00    -0.049 A  
DOCKED: ATOM     10  C   UNL     1      21.182  32.222   8.151 -0.28 +0.02    +0.044 C  
DOCKED: ATOM     11  C   UNL     1      19.930  32.357  10.335 -0.17 -0.01    +0.025 A  
DOCKED: ATOM     12  C   UNL     1      19.220  31.745  11.378 -0.17 -0.04    +0.062 A  
DOCKED: ATOM     13 CL   UNL     1      18.650  32.754  12.670 -0.15 +0.06    -0.082 Cl 
DOCKED: ENDBRANCH   4   6
DOCKED: ENDBRANCH   2   4
DOCKED: ENDBRANCH   1   2
DOCKED: BRANCH   1  14
DOCKED: ATOM     14  C   UNL     1      21.431  29.057  13.824 -0.13 -0.00    +0.010 C  
DOCKED: BRANCH  14  22
DOCKED: ATOM     15  C   UNL     1      23.059  28.995  11.860 -0.24 +0.01    -0.048 C  
DOCKED: ATOM     16  C   UNL     1      23.338  29.714  10.765 -0.14 +0.00    -0.020 C  
DOCKED: ATOM     17  C   UNL     1      23.372  31.212  10.677 -0.22 -0.00    +0.012 C  
DOCKED: ATOM     18  C   UNL     1      24.709  31.631  10.055 -0.24 -0.00    +0.012 C  
DOCKED: ATOM     19  C   UNL     1      22.982  31.983  11.969 -0.07 +0.00    -0.007 C  
DOCKED: ATOM     20  C   UNL     1      23.916  33.146  12.346 -0.02 -0.00    +0.008 C  
DOCKED: ATOM     21  C   UNL     1      22.712  31.162  13.243 -0.05 -0.00    +0.012 C  
DOCKED: ATOM     22  C   UNL     1      22.720  29.625  13.185 -0.11 -0.00    +0.019 C  
DOCKED: BRANCH  15  25
DOCKED: ATOM     23  C   UNL     1      24.458  25.391  11.822 -0.34 -0.01    +0.035 C  
DOCKED: ATOM     24  C   UNL     1      24.368  26.883  11.852 -0.32 +0.01    -0.030 C  
DOCKED: ATOM     25  C   UNL     1      23.203  27.546  11.870 -0.30 +0.00    -0.001 C  
DOCKED: ENDBRANCH  15  25
DOCKED: ENDBRANCH  14  22
DOCKED: ENDBRANCH   1  14
DOCKED: TORSDOF 6
DOCKED: TER
DOCKED: ENDMDL
________________________________________________________________________________


    FINAL DOCKED STATE:
    ________________________


Run:   15 / 50
Time taken for this run:   0.000s

DOCKED: MODEL        15
DOCKED: USER    Run = 15
DOCKED: USER
DOCKED: USER    Estimated Free Energy of Binding    =  -3.77 kcal/mol  [=(1)+(2)+(3)-(4)]
DOCKED: USER
DOCKED: USER    (1) Final Intermolecular Energy     =  -5.56 kcal/mol
DOCKED: USER        vdW + Hbond + desolv Energy     =  -5.54 kcal/mol
DOCKED: USER        Electrostatic Energy            =  -0.02 kcal/mol
DOCKED: USER        Moving Ligand-Fixed Receptor    =  -5.56 kcal/mol
DOCKED: USER        Moving Ligand-Moving Receptor   =  +0.00 kcal/mol
DOCKED: USER    (2) Final Total Internal Energy     =  -2.63 kcal/mol
DOCKED: USER    (3) Torsional Free Energy           =  +1.79 kcal/mol
DOCKED: USER    (4) Unbound System's Energy         =  -2.63 kcal/mol
DOCKED: USER
DOCKED: USER
DOCKED: REMARK  Name = 
DOCKED: REMARK  11 active torsions:
DOCKED: REMARK  status: ('A' for Active; 'I' for Inactive)
DOCKED: REMARK    1  A    between atoms: C_1  and  C_2
DOCKED: REMARK    2  A    between atoms: C_3  and  C_4
DOCKED: REMARK    3  A    between atoms: C_6  and  C_7
DOCKED: REMARK    4  A    between atoms: C_8  and  C_9
DOCKED: REMARK    5  A    between atoms: C_11  and  C_12
DOCKED: REMARK    6  A    between atoms: C_12  and  C_13
DOCKED: REMARK    7  A    between atoms: C_13  and  C_14
DOCKED: REMARK    8  A    between atoms: C_14  and  C_15
DOCKED: REMARK    9  A    between atoms: C_14  and  N_16
DOCKED: REMARK   10  A    between atoms: N_16  and  C_17
DOCKED: REMARK   11  A    between atoms: C_20  and  C_21
DOCKED: REMARK                            x       y       z     vdW  Elec       q    Type
DOCKED: REMARK                         _______ _______ _______ _____ _____    ______ ____
DOCKED: USER                              x       y       z     vdW  Elec       q    Type
DOCKED: USER                           _______ _______ _______ _____ _____    ______ ____
DOCKED: ROOT
DOCKED: ATOM      1  C   UNL     1       8.385  22.853  15.646 -0.35 -0.01    +0.022 C  
DOCKED: ENDROOT
DOCKED: BRANCH   1   2
DOCKED: ATOM      2  C   UNL     1       7.159  22.441  16.495 -0.26 -0.02    +0.067 C  
DOCKED: ATOM      3  C   UNL     1       5.891  22.382  15.632 -0.28 -0.01    +0.028 C  
DOCKED: BRANCH   2   4
DOCKED: ATOM      4  N   UNL     1       7.411  21.121  17.090 -0.06 +0.08    -0.340 N  
DOCKED: ATOM      5  H   UNL     1       7.270  20.342  16.444 +0.05 -0.02    +0.146 HD 
DOCKED: BRANCH   4   6
DOCKED: ATOM      6  C   UNL     1       8.577  20.903  17.852 -0.10 -0.01    +0.046 A  
DOCKED: ATOM      7  C   UNL     1       8.758  21.484  19.114 -0.04 -0.01    +0.024 A  
DOCKED: ATOM      8  C   UNL     1       9.883  21.211  19.896 -0.04 -0.00    +0.005 A  
DOCKED: ATOM      9  C   UNL     1      10.871  20.340  19.440 -0.09 +0.01    -0.049 A  
DOCKED: ATOM     10  C   UNL     1      12.083  20.073  20.277 -0.10 -0.01    +0.044 C  
DOCKED: ATOM     11  C   UNL     1      10.701  19.719  18.199 -0.15 -0.00    +0.025 A  
DOCKED: ATOM     12  C   UNL     1       9.563  19.990  17.425 -0.18 -0.01    +0.062 A  
DOCKED: ATOM     13 CL   UNL     1       9.414  19.187  15.894 -0.44 +0.01    -0.082 Cl 
DOCKED: ENDBRANCH   4   6
DOCKED: ENDBRANCH   2   4
DOCKED: ENDBRANCH   1   2
DOCKED: BRANCH   1  14
DOCKED: ATOM     14  C   UNL     1       9.247  23.906  16.361 -0.32 -0.00    +0.010 C  
DOCKED: BRANCH  14  22
DOCKED: ATOM     15  C   UNL     1      11.580  24.137  17.368 -0.21 +0.00    -0.048 C  
DOCKED: ATOM     16  C   UNL     1      12.546  23.347  17.856 -0.18 +0.00    -0.020 C  
DOCKED: ATOM     17  C   UNL     1      12.982  22.030  17.282 -0.32 -0.00    +0.012 C  
DOCKED: ATOM     18  C   UNL     1      14.504  22.062  17.099 -0.38 -0.00    +0.012 C  
DOCKED: ATOM     19  C   UNL     1      12.185  21.523  16.047 -0.44 +0.00    -0.007 C  
DOCKED: ATOM     20  C   UNL     1      13.043  20.991  14.887 -0.38 -0.00    +0.008 C  
DOCKED: ATOM     21  C   UNL     1      11.111  22.451  15.454 -0.30 +0.00    +0.012 C  
DOCKED: ATOM     22  C   UNL     1      10.775  23.783  16.147 -0.36 -0.00    +0.019 C  
DOCKED: BRANCH  15  25
DOCKED: ATOM     23  C   UNL     1      11.696  27.925  18.136 -0.20 -0.01    +0.035 C  
DOCKED: ATOM     24  C   UNL     1      11.948  26.590  17.510 -0.19 -0.00    -0.030 C  
DOCKED: ATOM     25  C   UNL     1      11.342  25.466  17.917 -0.22 +0.00    -0.001 C  
DOCKED: ENDBRANCH  15  25
DOCKED: ENDBRANCH  14  22
DOCKED: ENDBRANCH   1  14
DOCKED: TORSDOF 6
DOCKED: TER
DOCKED: ENDMDL
________________________________________________________________________________


    FINAL DOCKED STATE:
    ________________________


Run:   16 / 50
Time taken for this run:   0.000s

DOCKED: MODEL        16
DOCKED: USER    Run = 16
DOCKED: USER
DOCKED: USER    Estimated Free Energy of Binding    =  -5.00 kcal/mol  [=(1)+(2)+(3)-(4)]
DOCKED: USER
DOCKED: USER    (1) Final Intermolecular Energy     =  -6.79 kcal/mol
DOCKED: USER        vdW + Hbond + desolv Energy     =  -6.78 kcal/mol
DOCKED: USER        Electrostatic Energy            =  -0.01 kcal/mol
DOCKED: USER        Moving Ligand-Fixed Receptor    =  -6.79 kcal/mol
DOCKED: USER        Moving Ligand-Moving Receptor   =  +0.00 kcal/mol
DOCKED: USER    (2) Final Total Internal Energy     =  -1.60 kcal/mol
DOCKED: USER    (3) Torsional Free Energy           =  +1.79 kcal/mol
DOCKED: USER    (4) Unbound System's Energy         =  -1.60 kcal/mol
DOCKED: USER
DOCKED: USER
DOCKED: REMARK  Name = 
DOCKED: REMARK  11 active torsions:
DOCKED: REMARK  status: ('A' for Active; 'I' for Inactive)
DOCKED: REMARK    1  A    between atoms: C_1  and  C_2
DOCKED: REMARK    2  A    between atoms: C_3  and  C_4
DOCKED: REMARK    3  A    between atoms: C_6  and  C_7
DOCKED: REMARK    4  A    between atoms: C_8  and  C_9
DOCKED: REMARK    5  A    between atoms: C_11  and  C_12
DOCKED: REMARK    6  A    between atoms: C_12  and  C_13
DOCKED: REMARK    7  A    between atoms: C_13  and  C_14
DOCKED: REMARK    8  A    between atoms: C_14  and  C_15
DOCKED: REMARK    9  A    between atoms: C_14  and  N_16
DOCKED: REMARK   10  A    between atoms: N_16  and  C_17
DOCKED: REMARK   11  A    between atoms: C_20  and  C_21
DOCKED: REMARK                            x       y       z     vdW  Elec       q    Type
DOCKED: REMARK                         _______ _______ _______ _____ _____    ______ ____
DOCKED: USER                              x       y       z     vdW  Elec       q    Type
DOCKED: USER                           _______ _______ _______ _____ _____    ______ ____
DOCKED: ROOT
DOCKED: ATOM      1  C   UNL     1      13.687  21.386  16.603 -0.31 -0.00    +0.022 C  
DOCKED: ENDROOT
DOCKED: BRANCH   1   2
DOCKED: ATOM      2  C   UNL     1      14.122  21.887  18.001 -0.30 -0.01    +0.067 C  
DOCKED: ATOM      3  C   UNL     1      14.250  20.717  18.986 -0.22 -0.00    +0.028 C  
DOCKED: BRANCH   2   4
DOCKED: ATOM      4  N   UNL     1      15.415  22.575  17.883 -0.17 +0.06    -0.340 N  
DOCKED: ATOM      5  H   UNL     1      16.078  22.105  17.262 -0.37 -0.07    +0.146 HD 
DOCKED: BRANCH   4   6
DOCKED: ATOM      6  C   UNL     1      15.455  23.966  17.657 -0.21 -0.00    +0.046 A  
DOCKED: ATOM      7  C   UNL     1      14.334  24.782  17.855 -0.14 +0.00    +0.024 A  
DOCKED: ATOM      8  C   UNL     1      14.396  26.169  17.699 -0.15 +0.00    +0.005 A  
DOCKED: ATOM      9  C   UNL     1      15.589  26.791  17.337 -0.17 -0.01    -0.049 A  
DOCKED: ATOM     10  C   UNL     1      15.638  28.275  17.149 -0.16 +0.01    +0.044 C  
DOCKED: ATOM     11  C   UNL     1      16.733  26.005  17.166 -0.21 +0.00    +0.025 A  
DOCKED: ATOM     12  C   UNL     1      16.665  24.615  17.337 -0.24 -0.00    +0.062 A  
DOCKED: ATOM     13 CL   UNL     1      18.121  23.698  17.107 -0.31 +0.02    -0.082 Cl 
DOCKED: ENDBRANCH   4   6
DOCKED: ENDBRANCH   2   4
DOCKED: ENDBRANCH   1   2
DOCKED: BRANCH   1  14
DOCKED: ATOM     14  C   UNL     1      12.584  22.270  15.997 -0.30 +0.00    +0.010 C  
DOCKED: BRANCH  14  22
DOCKED: ATOM     15  C   UNL     1      10.158  23.059  16.057 -0.35 +0.01    -0.048 C  
DOCKED: ATOM     16  C   UNL     1       8.969  22.686  15.564 -0.39 +0.00    -0.020 C  
DOCKED: ATOM     17  C   UNL     1       8.453  21.280  15.472 -0.32 -0.00    +0.012 C  
DOCKED: ATOM     18  C   UNL     1       7.063  21.230  16.114 -0.29 -0.00    +0.012 C  
DOCKED: ATOM     19  C   UNL     1       9.428  20.161  15.934 -0.40 +0.00    -0.007 C  
DOCKED: ATOM     20  C   UNL     1       8.810  19.090  16.849 -0.31 -0.00    +0.008 C  
DOCKED: ATOM     21  C   UNL     1      10.773  20.587  16.548 -0.33 -0.00    +0.012 C  
DOCKED: ATOM     22  C   UNL     1      11.166  22.074  16.586 -0.30 -0.00    +0.019 C  
DOCKED: BRANCH  15  25
DOCKED: ATOM     23  C   UNL     1      11.162  26.486  17.536 -0.24 -0.01    +0.035 C  
DOCKED: ATOM     24  C   UNL     1      10.867  25.027  17.396 -0.25 +0.01    -0.030 C  
DOCKED: ATOM     25  C   UNL     1      10.494  24.464  16.238 -0.35 +0.00    -0.001 C  
DOCKED: ENDBRANCH  15  25
DOCKED: ENDBRANCH  14  22
DOCKED: ENDBRANCH   1  14
DOCKED: TORSDOF 6
DOCKED: TER
DOCKED: ENDMDL
________________________________________________________________________________


    FINAL DOCKED STATE:
    ________________________


Run:   17 / 50
Time taken for this run:   0.000s

DOCKED: MODEL        17
DOCKED: USER    Run = 17
DOCKED: USER
DOCKED: USER    Estimated Free Energy of Binding    =  -3.81 kcal/mol  [=(1)+(2)+(3)-(4)]
DOCKED: USER
DOCKED: USER    (1) Final Intermolecular Energy     =  -5.60 kcal/mol
DOCKED: USER        vdW + Hbond + desolv Energy     =  -5.59 kcal/mol
DOCKED: USER        Electrostatic Energy            =  -0.01 kcal/mol
DOCKED: USER        Moving Ligand-Fixed Receptor    =  -5.60 kcal/mol
DOCKED: USER        Moving Ligand-Moving Receptor   =  +0.00 kcal/mol
DOCKED: USER    (2) Final Total Internal Energy     =  -2.66 kcal/mol
DOCKED: USER    (3) Torsional Free Energy           =  +1.79 kcal/mol
DOCKED: USER    (4) Unbound System's Energy         =  -2.66 kcal/mol
DOCKED: USER
DOCKED: USER
DOCKED: REMARK  Name = 
DOCKED: REMARK  11 active torsions:
DOCKED: REMARK  status: ('A' for Active; 'I' for Inactive)
DOCKED: REMARK    1  A    between atoms: C_1  and  C_2
DOCKED: REMARK    2  A    between atoms: C_3  and  C_4
DOCKED: REMARK    3  A    between atoms: C_6  and  C_7
DOCKED: REMARK    4  A    between atoms: C_8  and  C_9
DOCKED: REMARK    5  A    between atoms: C_11  and  C_12
DOCKED: REMARK    6  A    between atoms: C_12  and  C_13
DOCKED: REMARK    7  A    between atoms: C_13  and  C_14
DOCKED: REMARK    8  A    between atoms: C_14  and  C_15
DOCKED: REMARK    9  A    between atoms: C_14  and  N_16
DOCKED: REMARK   10  A    between atoms: N_16  and  C_17
DOCKED: REMARK   11  A    between atoms: C_20  and  C_21
DOCKED: REMARK                            x       y       z     vdW  Elec       q    Type
DOCKED: REMARK                         _______ _______ _______ _____ _____    ______ ____
DOCKED: USER                              x       y       z     vdW  Elec       q    Type
DOCKED: USER                           _______ _______ _______ _____ _____    ______ ____
DOCKED: ROOT
DOCKED: ATOM      1  C   UNL     1       9.496  20.442  15.592 -0.30 -0.00    +0.022 C  
DOCKED: ENDROOT
DOCKED: BRANCH   1   2
DOCKED: ATOM      2  C   UNL     1      10.953  19.930  15.692 -0.43 -0.01    +0.067 C  
DOCKED: ATOM      3  C   UNL     1      11.175  18.729  14.762 -0.46 -0.01    +0.028 C  
DOCKED: BRANCH   2   4
DOCKED: ATOM      4  N   UNL     1      11.869  21.017  15.320 -0.21 +0.02    -0.340 N  
DOCKED: ATOM      5  H   UNL     1      12.073  21.062  14.320 +0.05 -0.00    +0.146 HD 
DOCKED: BRANCH   4   6
DOCKED: ATOM      6  C   UNL     1      11.658  22.318  15.822 -0.32 +0.00    +0.046 A  
DOCKED: ATOM      7  C   UNL     1      10.692  23.175  15.279 -0.34 +0.00    +0.024 A  
DOCKED: ATOM      8  C   UNL     1      10.437  24.436  15.823 -0.32 -0.00    +0.005 A  
DOCKED: ATOM      9  C   UNL     1      11.146  24.886  16.936 -0.23 +0.00    -0.049 A  
DOCKED: ATOM     10  C   UNL     1      10.881  26.249  17.496 -0.23 -0.02    +0.044 C  
DOCKED: ATOM     11  C   UNL     1      12.093  24.039  17.519 -0.17 -0.00    +0.025 A  
DOCKED: ATOM     12  C   UNL     1      12.333  22.769  16.974 -0.22 -0.00    +0.062 A  
DOCKED: ATOM     13 CL   UNL     1      13.523  21.769  17.745 -0.40 +0.01    -0.082 Cl 
DOCKED: ENDBRANCH   4   6
DOCKED: ENDBRANCH   2   4
DOCKED: ENDBRANCH   1   2
DOCKED: BRANCH   1  14
DOCKED: ATOM     14  C   UNL     1       8.631  19.936  16.759 -0.29 -0.00    +0.010 C  
DOCKED: BRANCH  14  22
DOCKED: ATOM     15  C   UNL     1       8.558  21.897  18.391 -0.08 +0.01    -0.048 C  
DOCKED: ATOM     16  C   UNL     1       8.481  23.233  18.351 -0.11 +0.01    -0.020 C  
DOCKED: ATOM     17  C   UNL     1       7.617  24.041  17.426 -0.21 -0.01    +0.012 C  
DOCKED: ATOM     18  C   UNL     1       6.804  25.032  18.265 -0.12 -0.01    +0.012 C  
DOCKED: ATOM     19  C   UNL     1       6.793  23.236  16.382 -0.30 +0.00    -0.007 C  
DOCKED: ATOM     20  C   UNL     1       5.320  23.658  16.244 -0.28 -0.00    +0.008 C  
DOCKED: ATOM     21  C   UNL     1       6.839  21.700  16.459 -0.26 -0.00    +0.012 C  
DOCKED: ATOM     22  C   UNL     1       7.768  21.006  17.469 -0.15 -0.00    +0.019 C  
DOCKED: BRANCH  15  25
DOCKED: ATOM     23  C   UNL     1      11.316  20.097  20.417 -0.07 -0.01    +0.035 C  
DOCKED: ATOM     24  C   UNL     1      10.597  20.832  19.331 -0.09 +0.00    -0.030 C  
DOCKED: ATOM     25  C   UNL     1       9.316  21.214  19.431 -0.05 +0.00    -0.001 C  
DOCKED: ENDBRANCH  15  25
DOCKED: ENDBRANCH  14  22
DOCKED: ENDBRANCH   1  14
DOCKED: TORSDOF 6
DOCKED: TER
DOCKED: ENDMDL
________________________________________________________________________________


    FINAL DOCKED STATE:
    ________________________


Run:   18 / 50
Time taken for this run:   0.000s

DOCKED: MODEL        18
DOCKED: USER    Run = 18
DOCKED: USER
DOCKED: USER    Estimated Free Energy of Binding    =  -3.63 kcal/mol  [=(1)+(2)+(3)-(4)]
DOCKED: USER
DOCKED: USER    (1) Final Intermolecular Energy     =  -5.42 kcal/mol
DOCKED: USER        vdW + Hbond + desolv Energy     =  -5.44 kcal/mol
DOCKED: USER        Electrostatic Energy            =  +0.02 kcal/mol
DOCKED: USER        Moving Ligand-Fixed Receptor    =  -5.42 kcal/mol
DOCKED: USER        Moving Ligand-Moving Receptor   =  +0.00 kcal/mol
DOCKED: USER    (2) Final Total Internal Energy     =  -2.65 kcal/mol
DOCKED: USER    (3) Torsional Free Energy           =  +1.79 kcal/mol
DOCKED: USER    (4) Unbound System's Energy         =  -2.65 kcal/mol
DOCKED: USER
DOCKED: USER
DOCKED: REMARK  Name = 
DOCKED: REMARK  11 active torsions:
DOCKED: REMARK  status: ('A' for Active; 'I' for Inactive)
DOCKED: REMARK    1  A    between atoms: C_1  and  C_2
DOCKED: REMARK    2  A    between atoms: C_3  and  C_4
DOCKED: REMARK    3  A    between atoms: C_6  and  C_7
DOCKED: REMARK    4  A    between atoms: C_8  and  C_9
DOCKED: REMARK    5  A    between atoms: C_11  and  C_12
DOCKED: REMARK    6  A    between atoms: C_12  and  C_13
DOCKED: REMARK    7  A    between atoms: C_13  and  C_14
DOCKED: REMARK    8  A    between atoms: C_14  and  C_15
DOCKED: REMARK    9  A    between atoms: C_14  and  N_16
DOCKED: REMARK   10  A    between atoms: N_16  and  C_17
DOCKED: REMARK   11  A    between atoms: C_20  and  C_21
DOCKED: REMARK                            x       y       z     vdW  Elec       q    Type
DOCKED: REMARK                         _______ _______ _______ _____ _____    ______ ____
DOCKED: USER                              x       y       z     vdW  Elec       q    Type
DOCKED: USER                           _______ _______ _______ _____ _____    ______ ____
DOCKED: ROOT
DOCKED: ATOM      1  C   UNL     1       7.789  19.980  16.266 -0.29 -0.00    +0.022 C  
DOCKED: ENDROOT
DOCKED: BRANCH   1   2
DOCKED: ATOM      2  C   UNL     1       8.033  19.103  17.517 -0.19 -0.01    +0.067 C  
DOCKED: ATOM      3  C   UNL     1       7.204  17.813  17.450 -0.21 -0.00    +0.028 C  
DOCKED: BRANCH   2   4
DOCKED: ATOM      4  N   UNL     1       9.461  18.767  17.595 -0.11 +0.04    -0.340 N  
DOCKED: ATOM      5  H   UNL     1       9.732  17.975  17.008 +0.05 -0.01    +0.146 HD 
DOCKED: BRANCH   4   6
DOCKED: ATOM      6  C   UNL     1      10.431  19.786  17.499 -0.20 -0.01    +0.046 A  
DOCKED: ATOM      7  C   UNL     1      10.794  20.572  18.600 -0.12 -0.00    +0.024 A  
DOCKED: ATOM      8  C   UNL     1      11.804  21.533  18.519 -0.13 -0.00    +0.005 A  
DOCKED: ATOM      9  C   UNL     1      12.491  21.741  17.324 -0.24 +0.01    -0.049 A  
DOCKED: ATOM     10  C   UNL     1      13.556  22.790  17.242 -0.27 -0.00    +0.044 C  
DOCKED: ATOM     11  C   UNL     1      12.174  20.948  16.217 -0.32 -0.00    +0.025 A  
DOCKED: ATOM     12  C   UNL     1      11.166  19.977  16.311 -0.29 -0.01    +0.062 A  
DOCKED: ATOM     13 CL   UNL     1      10.821  19.029  14.900 -0.57 +0.01    -0.082 Cl 
DOCKED: ENDBRANCH   4   6
DOCKED: ENDBRANCH   2   4
DOCKED: ENDBRANCH   1   2
DOCKED: BRANCH   1  14
DOCKED: ATOM     14  C   UNL     1       6.812  21.131  16.557 -0.24 -0.00    +0.010 C  
DOCKED: BRANCH  14  22
DOCKED: ATOM     15  C   UNL     1       7.607  23.263  17.712 -0.16 +0.02    -0.048 C  
DOCKED: ATOM     16  C   UNL     1       8.762  23.860  18.032 -0.16 +0.01    -0.020 C  
DOCKED: ATOM     17  C   UNL     1       9.986  23.938  17.165 -0.24 -0.00    +0.012 C  
DOCKED: ATOM     18  C   UNL     1      10.425  25.403  17.077 -0.24 -0.00    +0.012 C  
DOCKED: ATOM     19  C   UNL     1       9.907  23.196  15.801 -0.41 +0.00    -0.007 C  
DOCKED: ATOM     20  C   UNL     1      10.422  23.993  14.591 -0.35 +0.00    +0.008 C  
DOCKED: ATOM     21  C   UNL     1       8.565  22.553  15.408 -0.32 -0.00    +0.012 C  
DOCKED: ATOM     22  C   UNL     1       7.388  22.559  16.400 -0.30 -0.01    +0.019 C  
DOCKED: BRANCH  15  25
DOCKED: ATOM     23  C   UNL     1       4.881  22.687  20.392 -0.01 -0.01    +0.035 C  
DOCKED: ATOM     24  C   UNL     1       6.121  22.545  19.569 -0.02 +0.01    -0.030 C  
DOCKED: ATOM     25  C   UNL     1       6.434  23.379  18.568 -0.08 +0.00    -0.001 C  
DOCKED: ENDBRANCH  15  25
DOCKED: ENDBRANCH  14  22
DOCKED: ENDBRANCH   1  14
DOCKED: TORSDOF 6
DOCKED: TER
DOCKED: ENDMDL
________________________________________________________________________________


    FINAL DOCKED STATE:
    ________________________


Run:   19 / 50
Time taken for this run:   0.000s

DOCKED: MODEL        19
DOCKED: USER    Run = 19
DOCKED: USER
DOCKED: USER    Estimated Free Energy of Binding    =  -3.97 kcal/mol  [=(1)+(2)+(3)-(4)]
DOCKED: USER
DOCKED: USER    (1) Final Intermolecular Energy     =  -5.76 kcal/mol
DOCKED: USER        vdW + Hbond + desolv Energy     =  -5.75 kcal/mol
DOCKED: USER        Electrostatic Energy            =  -0.01 kcal/mol
DOCKED: USER        Moving Ligand-Fixed Receptor    =  -5.76 kcal/mol
DOCKED: USER        Moving Ligand-Moving Receptor   =  +0.00 kcal/mol
DOCKED: USER    (2) Final Total Internal Energy     =  -2.32 kcal/mol
DOCKED: USER    (3) Torsional Free Energy           =  +1.79 kcal/mol
DOCKED: USER    (4) Unbound System's Energy         =  -2.32 kcal/mol
DOCKED: USER
DOCKED: USER
DOCKED: REMARK  Name = 
DOCKED: REMARK  11 active torsions:
DOCKED: REMARK  status: ('A' for Active; 'I' for Inactive)
DOCKED: REMARK    1  A    between atoms: C_1  and  C_2
DOCKED: REMARK    2  A    between atoms: C_3  and  C_4
DOCKED: REMARK    3  A    between atoms: C_6  and  C_7
DOCKED: REMARK    4  A    between atoms: C_8  and  C_9
DOCKED: REMARK    5  A    between atoms: C_11  and  C_12
DOCKED: REMARK    6  A    between atoms: C_12  and  C_13
DOCKED: REMARK    7  A    between atoms: C_13  and  C_14
DOCKED: REMARK    8  A    between atoms: C_14  and  C_15
DOCKED: REMARK    9  A    between atoms: C_14  and  N_16
DOCKED: REMARK   10  A    between atoms: N_16  and  C_17
DOCKED: REMARK   11  A    between atoms: C_20  and  C_21
DOCKED: REMARK                            x       y       z     vdW  Elec       q    Type
DOCKED: REMARK                         _______ _______ _______ _____ _____    ______ ____
DOCKED: USER                              x       y       z     vdW  Elec       q    Type
DOCKED: USER                           _______ _______ _______ _____ _____    ______ ____
DOCKED: ROOT
DOCKED: ATOM      1  C   UNL     1       9.269  22.778  15.265 -0.35 -0.00    +0.022 C  
DOCKED: ENDROOT
DOCKED: BRANCH   1   2
DOCKED: ATOM      2  C   UNL     1       8.368  23.427  16.342 -0.29 -0.03    +0.067 C  
DOCKED: ATOM      3  C   UNL     1       6.883  23.219  16.011 -0.28 -0.01    +0.028 C  
DOCKED: BRANCH   2   4
DOCKED: ATOM      4  N   UNL     1       8.670  22.823  17.647 -0.04 +0.11    -0.340 N  
DOCKED: ATOM      5  H   UNL     1       8.127  23.213  18.420 +0.03 -0.06    +0.146 HD 
DOCKED: BRANCH   4   6
DOCKED: ATOM      6  C   UNL     1       8.740  21.420  17.774 -0.10 -0.01    +0.046 A  
DOCKED: ATOM      7  C   UNL     1       8.003  20.563  16.947 -0.19 -0.00    +0.024 A  
DOCKED: ATOM      8  C   UNL     1       8.127  19.174  17.029 -0.24 -0.00    +0.005 A  
DOCKED: ATOM      9  C   UNL     1       9.000  18.591  17.946 -0.17 +0.01    -0.049 A  
DOCKED: ATOM     10  C   UNL     1       9.107  17.101  18.040 -0.15 -0.00    +0.044 C  
DOCKED: ATOM     11  C   UNL     1       9.774  19.423  18.761 -0.12 -0.00    +0.025 A  
DOCKED: ATOM     12  C   UNL     1       9.652  20.817  18.664 -0.07 -0.01    +0.062 A  
DOCKED: ATOM     13 CL   UNL     1      10.640  21.791  19.706 -0.06 +0.02    -0.082 Cl 
DOCKED: ENDBRANCH   4   6
DOCKED: ENDBRANCH   2   4
DOCKED: ENDBRANCH   1   2
DOCKED: BRANCH   1  14
DOCKED: ATOM     14  C   UNL     1      10.718  23.286  15.350 -0.42 +0.00    +0.010 C  
DOCKED: BRANCH  14  22
DOCKED: ATOM     15  C   UNL     1      12.664  21.850  16.164 -0.39 +0.00    -0.048 C  
DOCKED: ATOM     16  C   UNL     1      13.922  22.015  16.593 -0.27 +0.00    -0.020 C  
DOCKED: ATOM     17  C   UNL     1      14.406  23.098  17.513 -0.29 -0.00    +0.012 C  
DOCKED: ATOM     18  C   UNL     1      15.175  22.445  18.667 -0.24 -0.00    +0.012 C  
DOCKED: ATOM     19  C   UNL     1      13.350  24.153  17.944 -0.18 +0.00    -0.007 C  
DOCKED: ATOM     20  C   UNL     1      13.337  24.492  19.445 -0.06 -0.00    +0.008 C  
DOCKED: ATOM     21  C   UNL     1      11.894  23.939  17.496 -0.21 -0.00    +0.012 C  
DOCKED: ATOM     22  C   UNL     1      11.541  22.773  16.556 -0.31 -0.00    +0.019 C  
DOCKED: BRANCH  15  25
DOCKED: ATOM     23  C   UNL     1      10.816  18.748  14.781 -0.45 -0.01    +0.035 C  
DOCKED: ATOM     24  C   UNL     1      11.148  19.972  15.574 -0.45 +0.00    -0.030 C  
DOCKED: ATOM     25  C   UNL     1      12.275  20.676  15.395 -0.46 +0.00    -0.001 C  
DOCKED: ENDBRANCH  15  25
DOCKED: ENDBRANCH  14  22
DOCKED: ENDBRANCH   1  14
DOCKED: TORSDOF 6
DOCKED: TER
DOCKED: ENDMDL
________________________________________________________________________________


    FINAL DOCKED STATE:
    ________________________


Run:   20 / 50
Time taken for this run:   0.000s

DOCKED: MODEL        20
DOCKED: USER    Run = 20
DOCKED: USER
DOCKED: USER    Estimated Free Energy of Binding    =  -4.96 kcal/mol  [=(1)+(2)+(3)-(4)]
DOCKED: USER
DOCKED: USER    (1) Final Intermolecular Energy     =  -6.75 kcal/mol
DOCKED: USER        vdW + Hbond + desolv Energy     =  -6.73 kcal/mol
DOCKED: USER        Electrostatic Energy            =  -0.01 kcal/mol
DOCKED: USER        Moving Ligand-Fixed Receptor    =  -6.75 kcal/mol
DOCKED: USER        Moving Ligand-Moving Receptor   =  +0.00 kcal/mol
DOCKED: USER    (2) Final Total Internal Energy     =  -1.57 kcal/mol
DOCKED: USER    (3) Torsional Free Energy           =  +1.79 kcal/mol
DOCKED: USER    (4) Unbound System's Energy         =  -1.57 kcal/mol
DOCKED: USER
DOCKED: USER
DOCKED: REMARK  Name = 
DOCKED: REMARK  11 active torsions:
DOCKED: REMARK  status: ('A' for Active; 'I' for Inactive)
DOCKED: REMARK    1  A    between atoms: C_1  and  C_2
DOCKED: REMARK    2  A    between atoms: C_3  and  C_4
DOCKED: REMARK    3  A    between atoms: C_6  and  C_7
DOCKED: REMARK    4  A    between atoms: C_8  and  C_9
DOCKED: REMARK    5  A    between atoms: C_11  and  C_12
DOCKED: REMARK    6  A    between atoms: C_12  and  C_13
DOCKED: REMARK    7  A    between atoms: C_13  and  C_14
DOCKED: REMARK    8  A    between atoms: C_14  and  C_15
DOCKED: REMARK    9  A    between atoms: C_14  and  N_16
DOCKED: REMARK   10  A    between atoms: N_16  and  C_17
DOCKED: REMARK   11  A    between atoms: C_20  and  C_21
DOCKED: REMARK                            x       y       z     vdW  Elec       q    Type
DOCKED: REMARK                         _______ _______ _______ _____ _____    ______ ____
DOCKED: USER                              x       y       z     vdW  Elec       q    Type
DOCKED: USER                           _______ _______ _______ _____ _____    ______ ____
DOCKED: ROOT
DOCKED: ATOM      1  C   UNL     1      13.650  21.378  16.889 -0.30 -0.00    +0.022 C  
DOCKED: ENDROOT
DOCKED: BRANCH   1   2
DOCKED: ATOM      2  C   UNL     1      14.297  21.883  18.200 -0.28 -0.01    +0.067 C  
DOCKED: ATOM      3  C   UNL     1      14.579  20.716  19.156 -0.23 -0.00    +0.028 C  
DOCKED: BRANCH   2   4
DOCKED: ATOM      4  N   UNL     1      15.556  22.571  17.879 -0.16 +0.06    -0.340 N  
DOCKED: ATOM      5  H   UNL     1      16.102  22.113  17.146 -0.37 -0.07    +0.146 HD 
DOCKED: BRANCH   4   6
DOCKED: ATOM      6  C   UNL     1      15.564  23.966  17.678 -0.21 -0.00    +0.046 A  
DOCKED: ATOM      7  C   UNL     1      14.423  24.753  17.884 -0.15 +0.00    +0.024 A  
DOCKED: ATOM      8  C   UNL     1      14.453  26.143  17.753 -0.15 +0.00    +0.005 A  
DOCKED: ATOM      9  C   UNL     1      15.633  26.798  17.408 -0.17 -0.01    -0.049 A  
DOCKED: ATOM     10  C   UNL     1      15.648  28.287  17.247 -0.15 +0.01    +0.044 C  
DOCKED: ATOM     11  C   UNL     1      16.796  26.043  17.229 -0.20 +0.00    +0.025 A  
DOCKED: ATOM     12  C   UNL     1      16.760  24.649  17.376 -0.24 -0.00    +0.062 A  
DOCKED: ATOM     13 CL   UNL     1      18.238  23.771  17.138 -0.32 +0.02    -0.082 Cl 
DOCKED: ENDBRANCH   4   6
DOCKED: ENDBRANCH   2   4
DOCKED: ENDBRANCH   1   2
DOCKED: BRANCH   1  14
DOCKED: ATOM     14  C   UNL     1      12.640  22.390  16.323 -0.33 +0.00    +0.010 C  
DOCKED: BRANCH  14  22
DOCKED: ATOM     15  C   UNL     1      10.231  23.222  16.196 -0.34 +0.01    -0.048 C  
DOCKED: ATOM     16  C   UNL     1       9.076  22.867  15.619 -0.41 +0.00    -0.020 C  
DOCKED: ATOM     17  C   UNL     1       8.542  21.469  15.499 -0.35 -0.00    +0.012 C  
DOCKED: ATOM     18  C   UNL     1       7.107  21.449  16.037 -0.32 -0.00    +0.012 C  
DOCKED: ATOM     19  C   UNL     1       9.460  20.337  16.041 -0.39 +0.00    -0.007 C  
DOCKED: ATOM     20  C   UNL     1       8.755  19.284  16.914 -0.30 -0.00    +0.008 C  
DOCKED: ATOM     21  C   UNL     1      10.763  20.744  16.750 -0.30 -0.00    +0.012 C  
DOCKED: ATOM     22  C   UNL     1      11.179  22.224  16.806 -0.27 -0.00    +0.019 C  
DOCKED: BRANCH  15  25
DOCKED: ATOM     23  C   UNL     1      11.173  26.647  17.723 -0.23 -0.01    +0.035 C  
DOCKED: ATOM     24  C   UNL     1      10.861  25.192  17.573 -0.24 +0.01    -0.030 C  
DOCKED: ATOM     25  C   UNL     1      10.579  24.623  16.392 -0.33 +0.00    -0.001 C  
DOCKED: ENDBRANCH  15  25
DOCKED: ENDBRANCH  14  22
DOCKED: ENDBRANCH   1  14
DOCKED: TORSDOF 6
DOCKED: TER
DOCKED: ENDMDL
________________________________________________________________________________


    FINAL DOCKED STATE:
    ________________________


Run:   21 / 50
Time taken for this run:   0.000s

DOCKED: MODEL        21
DOCKED: USER    Run = 21
DOCKED: USER
DOCKED: USER    Estimated Free Energy of Binding    =  -3.63 kcal/mol  [=(1)+(2)+(3)-(4)]
DOCKED: USER
DOCKED: USER    (1) Final Intermolecular Energy     =  -5.42 kcal/mol
DOCKED: USER        vdW + Hbond + desolv Energy     =  -5.39 kcal/mol
DOCKED: USER        Electrostatic Energy            =  -0.03 kcal/mol
DOCKED: USER        Moving Ligand-Fixed Receptor    =  -5.42 kcal/mol
DOCKED: USER        Moving Ligand-Moving Receptor   =  +0.00 kcal/mol
DOCKED: USER    (2) Final Total Internal Energy     =  -2.61 kcal/mol
DOCKED: USER    (3) Torsional Free Energy           =  +1.79 kcal/mol
DOCKED: USER    (4) Unbound System's Energy         =  -2.61 kcal/mol
DOCKED: USER
DOCKED: USER
DOCKED: REMARK  Name = 
DOCKED: REMARK  11 active torsions:
DOCKED: REMARK  status: ('A' for Active; 'I' for Inactive)
DOCKED: REMARK    1  A    between atoms: C_1  and  C_2
DOCKED: REMARK    2  A    between atoms: C_3  and  C_4
DOCKED: REMARK    3  A    between atoms: C_6  and  C_7
DOCKED: REMARK    4  A    between atoms: C_8  and  C_9
DOCKED: REMARK    5  A    between atoms: C_11  and  C_12
DOCKED: REMARK    6  A    between atoms: C_12  and  C_13
DOCKED: REMARK    7  A    between atoms: C_13  and  C_14
DOCKED: REMARK    8  A    between atoms: C_14  and  C_15
DOCKED: REMARK    9  A    between atoms: C_14  and  N_16
DOCKED: REMARK   10  A    between atoms: N_16  and  C_17
DOCKED: REMARK   11  A    between atoms: C_20  and  C_21
DOCKED: REMARK                            x       y       z     vdW  Elec       q    Type
DOCKED: REMARK                         _______ _______ _______ _____ _____    ______ ____
DOCKED: USER                              x       y       z     vdW  Elec       q    Type
DOCKED: USER                           _______ _______ _______ _____ _____    ______ ____
DOCKED: ROOT
DOCKED: ATOM      1  C   UNL     1       7.924  24.351  17.406 -0.20 -0.02    +0.022 C  
DOCKED: ENDROOT
DOCKED: BRANCH   1   2
DOCKED: ATOM      2  C   UNL     1       7.238  23.034  16.973 -0.22 -0.03    +0.067 C  
DOCKED: ATOM      3  C   UNL     1       5.724  23.233  16.812 -0.22 -0.01    +0.028 C  
DOCKED: BRANCH   2   4
DOCKED: ATOM      4  N   UNL     1       7.815  22.590  15.697 -0.18 +0.13    -0.340 N  
DOCKED: ATOM      5  H   UNL     1       7.595  23.202  14.908 -0.30 -0.08    +0.146 HD 
DOCKED: BRANCH   4   6
DOCKED: ATOM      6  C   UNL     1       9.168  22.199  15.634 -0.31 -0.01    +0.046 A  
DOCKED: ATOM      7  C   UNL     1      10.189  23.106  15.324 -0.34 -0.00    +0.024 A  
DOCKED: ATOM      8  C   UNL     1      11.535  22.732  15.331 -0.27 +0.00    +0.005 A  
DOCKED: ATOM      9  C   UNL     1      11.907  21.428  15.651 -0.38 +0.00    -0.049 A  
DOCKED: ATOM     10  C   UNL     1      13.351  21.032  15.633 -0.24 -0.01    +0.044 C  
DOCKED: ATOM     11  C   UNL     1      10.912  20.509  15.998 -0.36 -0.00    +0.025 A  
DOCKED: ATOM     12  C   UNL     1       9.565  20.896  16.000 -0.28 -0.01    +0.062 A  
DOCKED: ATOM     13 CL   UNL     1       8.380  19.706  16.438 -0.41 +0.01    -0.082 Cl 
DOCKED: ENDBRANCH   4   6
DOCKED: ENDBRANCH   2   4
DOCKED: ENDBRANCH   1   2
DOCKED: BRANCH   1  14
DOCKED: ATOM     14  C   UNL     1       8.352  24.315  18.882 -0.12 -0.01    +0.010 C  
DOCKED: BRANCH  14  22
DOCKED: ATOM     15  C   UNL     1      10.851  23.801  18.821 -0.08 +0.01    -0.048 C  
DOCKED: ATOM     16  C   UNL     1      11.921  24.109  18.076 -0.16 +0.00    -0.020 C  
DOCKED: ATOM     17  C   UNL     1      12.239  25.460  17.503 -0.21 +0.00    +0.012 C  
DOCKED: ATOM     18  C   UNL     1      13.674  25.828  17.897 -0.18 +0.00    +0.012 C  
DOCKED: ATOM     19  C   UNL     1      11.186  26.576  17.754 -0.24 +0.00    -0.007 C  
DOCKED: ATOM     20  C   UNL     1      11.759  27.926  18.217 -0.20 -0.00    +0.008 C  
DOCKED: ATOM     21  C   UNL     1       9.982  26.240  18.652 -0.14 -0.01    +0.012 C  
DOCKED: ATOM     22  C   UNL     1       9.789  24.807  19.178 -0.10 -0.01    +0.019 C  
DOCKED: BRANCH  15  25
DOCKED: ATOM     23  C   UNL     1      11.281  20.095  19.833 -0.10 -0.01    +0.035 C  
DOCKED: ATOM     24  C   UNL     1      11.485  21.427  19.185 -0.10 +0.00    -0.030 C  
DOCKED: ATOM     25  C   UNL     1      10.720  22.495  19.451 -0.05 +0.00    -0.001 C  
DOCKED: ENDBRANCH  15  25
DOCKED: ENDBRANCH  14  22
DOCKED: ENDBRANCH   1  14
DOCKED: TORSDOF 6
DOCKED: TER
DOCKED: ENDMDL
________________________________________________________________________________


    FINAL DOCKED STATE:
    ________________________


Run:   22 / 50
Time taken for this run:   0.000s

DOCKED: MODEL        22
DOCKED: USER    Run = 22
DOCKED: USER
DOCKED: USER    Estimated Free Energy of Binding    =  -3.83 kcal/mol  [=(1)+(2)+(3)-(4)]
DOCKED: USER
DOCKED: USER    (1) Final Intermolecular Energy     =  -5.62 kcal/mol
DOCKED: USER        vdW + Hbond + desolv Energy     =  -5.60 kcal/mol
DOCKED: USER        Electrostatic Energy            =  -0.02 kcal/mol
DOCKED: USER        Moving Ligand-Fixed Receptor    =  -5.62 kcal/mol
DOCKED: USER        Moving Ligand-Moving Receptor   =  +0.00 kcal/mol
DOCKED: USER    (2) Final Total Internal Energy     =  -2.55 kcal/mol
DOCKED: USER    (3) Torsional Free Energy           =  +1.79 kcal/mol
DOCKED: USER    (4) Unbound System's Energy         =  -2.55 kcal/mol
DOCKED: USER
DOCKED: USER
DOCKED: REMARK  Name = 
DOCKED: REMARK  11 active torsions:
DOCKED: REMARK  status: ('A' for Active; 'I' for Inactive)
DOCKED: REMARK    1  A    between atoms: C_1  and  C_2
DOCKED: REMARK    2  A    between atoms: C_3  and  C_4
DOCKED: REMARK    3  A    between atoms: C_6  and  C_7
DOCKED: REMARK    4  A    between atoms: C_8  and  C_9
DOCKED: REMARK    5  A    between atoms: C_11  and  C_12
DOCKED: REMARK    6  A    between atoms: C_12  and  C_13
DOCKED: REMARK    7  A    between atoms: C_13  and  C_14
DOCKED: REMARK    8  A    between atoms: C_14  and  C_15
DOCKED: REMARK    9  A    between atoms: C_14  and  N_16
DOCKED: REMARK   10  A    between atoms: N_16  and  C_17
DOCKED: REMARK   11  A    between atoms: C_20  and  C_21
DOCKED: REMARK                            x       y       z     vdW  Elec       q    Type
DOCKED: REMARK                         _______ _______ _______ _____ _____    ______ ____
DOCKED: USER                              x       y       z     vdW  Elec       q    Type
DOCKED: USER                           _______ _______ _______ _____ _____    ______ ____
DOCKED: ROOT
DOCKED: ATOM      1  C   UNL     1       8.319  22.732  15.788 -0.35 -0.01    +0.022 C  
DOCKED: ENDROOT
DOCKED: BRANCH   1   2
DOCKED: ATOM      2  C   UNL     1       7.011  22.575  16.600 -0.25 -0.03    +0.067 C  
DOCKED: ATOM      3  C   UNL     1       5.812  22.354  15.667 -0.29 -0.01    +0.028 C  
DOCKED: BRANCH   2   4
DOCKED: ATOM      4  N   UNL     1       7.146  21.427  17.508 -0.03 +0.09    -0.340 N  
DOCKED: ATOM      5  H   UNL     1       6.677  20.581  17.178 +0.04 -0.03    +0.146 HD 
DOCKED: BRANCH   4   6
DOCKED: ATOM      6  C   UNL     1       8.409  21.095  18.039 -0.08 -0.01    +0.046 A  
DOCKED: ATOM      7  C   UNL     1       8.904  21.692  19.206 -0.04 -0.01    +0.024 A  
DOCKED: ATOM      8  C   UNL     1      10.124  21.310  19.768 -0.04 -0.00    +0.005 A  
DOCKED: ATOM      9  C   UNL     1      10.896  20.310  19.178 -0.10 +0.01    -0.049 A  
DOCKED: ATOM     10  C   UNL     1      12.214  19.925  19.777 -0.13 -0.01    +0.044 C  
DOCKED: ATOM     11  C   UNL     1      10.412  19.673  18.032 -0.17 -0.00    +0.025 A  
DOCKED: ATOM     12  C   UNL     1       9.180  20.054  17.481 -0.16 -0.01    +0.062 A  
DOCKED: ATOM     13 CL   UNL     1       8.638  19.224  16.057 -0.42 +0.01    -0.082 Cl 
DOCKED: ENDBRANCH   4   6
DOCKED: ENDBRANCH   2   4
DOCKED: ENDBRANCH   1   2
DOCKED: BRANCH   1  14
DOCKED: ATOM     14  C   UNL     1       9.135  23.950  16.250 -0.29 -0.00    +0.010 C  
DOCKED: BRANCH  14  22
DOCKED: ATOM     15  C   UNL     1      11.468  24.465  17.147 -0.24 +0.00    -0.048 C  
DOCKED: ATOM     16  C   UNL     1      12.477  23.821  17.748 -0.19 +0.00    -0.020 C  
DOCKED: ATOM     17  C   UNL     1      12.969  22.442  17.414 -0.28 -0.00    +0.012 C  
DOCKED: ATOM     18  C   UNL     1      14.484  22.508  17.194 -0.34 -0.00    +0.012 C  
DOCKED: ATOM     19  C   UNL     1      12.180  21.683  16.310 -0.40 +0.00    -0.007 C  
DOCKED: ATOM     20  C   UNL     1      13.047  20.988  15.246 -0.45 -0.00    +0.008 C  
DOCKED: ATOM     21  C   UNL     1      11.055  22.439  15.581 -0.35 +0.00    +0.012 C  
DOCKED: ATOM     22  C   UNL     1      10.664  23.858  16.028 -0.37 -0.00    +0.019 C  
DOCKED: BRANCH  15  25
DOCKED: ATOM     23  C   UNL     1      11.666  28.141  18.329 -0.18 -0.01    +0.035 C  
DOCKED: ATOM     24  C   UNL     1      12.033  26.729  18.000 -0.22 +0.00    -0.030 C  
DOCKED: ATOM     25  C   UNL     1      11.174  25.859  17.450 -0.26 +0.00    -0.001 C  
DOCKED: ENDBRANCH  15  25
DOCKED: ENDBRANCH  14  22
DOCKED: ENDBRANCH   1  14
DOCKED: TORSDOF 6
DOCKED: TER
DOCKED: ENDMDL
________________________________________________________________________________


    FINAL DOCKED STATE:
    ________________________


Run:   23 / 50
Time taken for this run:   0.000s

DOCKED: MODEL        23
DOCKED: USER    Run = 23
DOCKED: USER
DOCKED: USER    Estimated Free Energy of Binding    =  -3.89 kcal/mol  [=(1)+(2)+(3)-(4)]
DOCKED: USER
DOCKED: USER    (1) Final Intermolecular Energy     =  -5.68 kcal/mol
DOCKED: USER        vdW + Hbond + desolv Energy     =  -5.67 kcal/mol
DOCKED: USER        Electrostatic Energy            =  -0.01 kcal/mol
DOCKED: USER        Moving Ligand-Fixed Receptor    =  -5.68 kcal/mol
DOCKED: USER        Moving Ligand-Moving Receptor   =  +0.00 kcal/mol
DOCKED: USER    (2) Final Total Internal Energy     =  -2.40 kcal/mol
DOCKED: USER    (3) Torsional Free Energy           =  +1.79 kcal/mol
DOCKED: USER    (4) Unbound System's Energy         =  -2.40 kcal/mol
DOCKED: USER
DOCKED: USER
DOCKED: REMARK  Name = 
DOCKED: REMARK  11 active torsions:
DOCKED: REMARK  status: ('A' for Active; 'I' for Inactive)
DOCKED: REMARK    1  A    between atoms: C_1  and  C_2
DOCKED: REMARK    2  A    between atoms: C_3  and  C_4
DOCKED: REMARK    3  A    between atoms: C_6  and  C_7
DOCKED: REMARK    4  A    between atoms: C_8  and  C_9
DOCKED: REMARK    5  A    between atoms: C_11  and  C_12
DOCKED: REMARK    6  A    between atoms: C_12  and  C_13
DOCKED: REMARK    7  A    between atoms: C_13  and  C_14
DOCKED: REMARK    8  A    between atoms: C_14  and  C_15
DOCKED: REMARK    9  A    between atoms: C_14  and  N_16
DOCKED: REMARK   10  A    between atoms: N_16  and  C_17
DOCKED: REMARK   11  A    between atoms: C_20  and  C_21
DOCKED: REMARK                            x       y       z     vdW  Elec       q    Type
DOCKED: REMARK                         _______ _______ _______ _____ _____    ______ ____
DOCKED: USER                              x       y       z     vdW  Elec       q    Type
DOCKED: USER                           _______ _______ _______ _____ _____    ______ ____
DOCKED: ROOT
DOCKED: ATOM      1  C   UNL     1       8.550  22.046  16.880 -0.23 -0.01    +0.022 C  
DOCKED: ENDROOT
DOCKED: BRANCH   1   2
DOCKED: ATOM      2  C   UNL     1       9.874  22.844  16.945 -0.22 -0.01    +0.067 C  
DOCKED: ATOM      3  C   UNL     1       9.674  24.277  16.433 -0.28 -0.01    +0.028 C  
DOCKED: BRANCH   2   4
DOCKED: ATOM      4  N   UNL     1      10.344  22.879  18.337 -0.01 +0.07    -0.340 N  
DOCKED: ATOM      5  H   UNL     1       9.595  22.807  19.028 +0.03 -0.04    +0.146 HD 
DOCKED: BRANCH   4   6
DOCKED: ATOM      6  C   UNL     1      11.436  22.079  18.732 -0.08 -0.01    +0.046 A  
DOCKED: ATOM      7  C   UNL     1      11.258  20.855  19.391 -0.09 -0.00    +0.024 A  
DOCKED: ATOM      8  C   UNL     1      12.338  20.032  19.718 -0.12 -0.00    +0.005 A  
DOCKED: ATOM      9  C   UNL     1      13.641  20.407  19.395 -0.16 +0.01    -0.049 A  
DOCKED: ATOM     10  C   UNL     1      14.793  19.527  19.772 -0.23 -0.00    +0.044 C  
DOCKED: ATOM     11  C   UNL     1      13.846  21.606  18.707 -0.20 -0.00    +0.025 A  
DOCKED: ATOM     12  C   UNL     1      12.755  22.421  18.371 -0.13 -0.01    +0.062 A  
DOCKED: ATOM     13 CL   UNL     1      13.078  23.898  17.519 -0.23 -0.00    -0.082 Cl 
DOCKED: ENDBRANCH   4   6
DOCKED: ENDBRANCH   2   4
DOCKED: ENDBRANCH   1   2
DOCKED: BRANCH   1  14
DOCKED: ATOM     14  C   UNL     1       8.461  21.191  15.604 -0.37 -0.00    +0.010 C  
DOCKED: BRANCH  14  22
DOCKED: ATOM     15  C   UNL     1       9.908  19.215  16.321 -0.39 +0.01    -0.048 C  
DOCKED: ATOM     16  C   UNL     1      10.051  18.409  17.381 -0.25 +0.00    -0.020 C  
DOCKED: ATOM     17  C   UNL     1       8.939  17.822  18.201 -0.21 -0.00    +0.012 C  
DOCKED: ATOM     18  C   UNL     1       9.154  16.308  18.298 -0.22 -0.00    +0.012 C  
DOCKED: ATOM     19  C   UNL     1       7.498  18.255  17.810 -0.19 +0.00    -0.007 C  
DOCKED: ATOM     20  C   UNL     1       6.471  17.113  17.724 -0.22 -0.00    +0.008 C  
DOCKED: ATOM     21  C   UNL     1       7.326  19.140  16.562 -0.27 -0.00    +0.012 C  
DOCKED: ATOM     22  C   UNL     1       8.563  19.661  15.811 -0.35 -0.00    +0.019 C  
DOCKED: BRANCH  15  25
DOCKED: ATOM     23  C   UNL     1      13.032  20.989  14.892 -0.36 -0.00    +0.035 C  
DOCKED: ATOM     24  C   UNL     1      11.895  20.607  15.785 -0.42 +0.00    -0.030 C  
DOCKED: ATOM     25  C   UNL     1      11.051  19.603  15.506 -0.48 +0.00    -0.001 C  
DOCKED: ENDBRANCH  15  25
DOCKED: ENDBRANCH  14  22
DOCKED: ENDBRANCH   1  14
DOCKED: TORSDOF 6
DOCKED: TER
DOCKED: ENDMDL
________________________________________________________________________________


    FINAL DOCKED STATE:
    ________________________


Run:   24 / 50
Time taken for this run:   0.000s

DOCKED: MODEL        24
DOCKED: USER    Run = 24
DOCKED: USER
DOCKED: USER    Estimated Free Energy of Binding    =  -3.53 kcal/mol  [=(1)+(2)+(3)-(4)]
DOCKED: USER
DOCKED: USER    (1) Final Intermolecular Energy     =  -5.32 kcal/mol
DOCKED: USER        vdW + Hbond + desolv Energy     =  -5.30 kcal/mol
DOCKED: USER        Electrostatic Energy            =  -0.02 kcal/mol
DOCKED: USER        Moving Ligand-Fixed Receptor    =  -5.32 kcal/mol
DOCKED: USER        Moving Ligand-Moving Receptor   =  +0.00 kcal/mol
DOCKED: USER    (2) Final Total Internal Energy     =  -2.47 kcal/mol
DOCKED: USER    (3) Torsional Free Energy           =  +1.79 kcal/mol
DOCKED: USER    (4) Unbound System's Energy         =  -2.47 kcal/mol
DOCKED: USER
DOCKED: USER
DOCKED: REMARK  Name = 
DOCKED: REMARK  11 active torsions:
DOCKED: REMARK  status: ('A' for Active; 'I' for Inactive)
DOCKED: REMARK    1  A    between atoms: C_1  and  C_2
DOCKED: REMARK    2  A    between atoms: C_3  and  C_4
DOCKED: REMARK    3  A    between atoms: C_6  and  C_7
DOCKED: REMARK    4  A    between atoms: C_8  and  C_9
DOCKED: REMARK    5  A    between atoms: C_11  and  C_12
DOCKED: REMARK    6  A    between atoms: C_12  and  C_13
DOCKED: REMARK    7  A    between atoms: C_13  and  C_14
DOCKED: REMARK    8  A    between atoms: C_14  and  C_15
DOCKED: REMARK    9  A    between atoms: C_14  and  N_16
DOCKED: REMARK   10  A    between atoms: N_16  and  C_17
DOCKED: REMARK   11  A    between atoms: C_20  and  C_21
DOCKED: REMARK                            x       y       z     vdW  Elec       q    Type
DOCKED: REMARK                         _______ _______ _______ _____ _____    ______ ____
DOCKED: USER                              x       y       z     vdW  Elec       q    Type
DOCKED: USER                           _______ _______ _______ _____ _____    ______ ____
DOCKED: ROOT
DOCKED: ATOM      1  C   UNL     1      11.181  23.586  15.719 -0.32 +0.00    +0.022 C  
DOCKED: ENDROOT
DOCKED: BRANCH   1   2
DOCKED: ATOM      2  C   UNL     1      11.341  24.723  16.757 -0.24 +0.00    +0.067 C  
DOCKED: ATOM      3  C   UNL     1       9.978  25.135  17.330 -0.20 -0.01    +0.028 C  
DOCKED: BRANCH   2   4
DOCKED: ATOM      4  N   UNL     1      12.213  24.259  17.845 -0.07 +0.02    -0.340 N  
DOCKED: ATOM      5  H   UNL     1      12.385  24.963  18.566 +0.03 -0.02    +0.146 HD 
DOCKED: BRANCH   4   6
DOCKED: ATOM      6  C   UNL     1      11.980  23.006  18.448 -0.09 -0.01    +0.046 A  
DOCKED: ATOM      7  C   UNL     1      10.864  22.770  19.262 -0.04 -0.00    +0.024 A  
DOCKED: ATOM      8  C   UNL     1      10.599  21.509  19.800 -0.04 -0.00    +0.005 A  
DOCKED: ATOM      9  C   UNL     1      11.446  20.433  19.541 -0.10 +0.01    -0.049 A  
DOCKED: ATOM     10  C   UNL     1      11.165  19.092  20.143 -0.11 -0.01    +0.044 C  
DOCKED: ATOM     11  C   UNL     1      12.549  20.631  18.705 -0.14 -0.00    +0.025 A  
DOCKED: ATOM     12  C   UNL     1      12.801  21.897  18.158 -0.17 -0.01    +0.062 A  
DOCKED: ATOM     13 CL   UNL     1      14.188  22.075  17.130 -0.48 +0.01    -0.082 Cl 
DOCKED: ENDBRANCH   4   6
DOCKED: ENDBRANCH   2   4
DOCKED: ENDBRANCH   1   2
DOCKED: BRANCH   1  14
DOCKED: ATOM     14  C   UNL     1       9.706  23.207  15.510 -0.42 -0.00    +0.010 C  
DOCKED: BRANCH  14  22
DOCKED: ATOM     15  C   UNL     1       7.670  21.901  16.324 -0.29 +0.01    -0.048 C  
DOCKED: ATOM     16  C   UNL     1       7.110  20.698  16.140 -0.23 +0.00    -0.020 C  
DOCKED: ATOM     17  C   UNL     1       7.840  19.390  16.035 -0.25 -0.00    +0.012 C  
DOCKED: ATOM     18  C   UNL     1       7.213  18.404  17.026 -0.25 -0.00    +0.012 C  
DOCKED: ATOM     19  C   UNL     1       9.392  19.467  16.082 -0.42 +0.00    -0.007 C  
DOCKED: ATOM     20  C   UNL     1      10.071  18.441  17.005 -0.24 -0.00    +0.008 C  
DOCKED: ATOM     21  C   UNL     1      10.037  20.839  16.346 -0.33 -0.00    +0.012 C  
DOCKED: ATOM     22  C   UNL     1       9.158  22.098  16.441 -0.29 -0.00    +0.019 C  
DOCKED: BRANCH  15  25
DOCKED: ATOM     23  C   UNL     1       5.869  24.919  17.935 -0.13 -0.03    +0.035 C  
DOCKED: ATOM     24  C   UNL     1       6.753  23.729  17.734 -0.17 +0.02    -0.030 C  
DOCKED: ATOM     25  C   UNL     1       6.856  23.085  16.563 -0.28 +0.00    -0.001 C  
DOCKED: ENDBRANCH  15  25
DOCKED: ENDBRANCH  14  22
DOCKED: ENDBRANCH   1  14
DOCKED: TORSDOF 6
DOCKED: TER
DOCKED: ENDMDL
________________________________________________________________________________


    FINAL DOCKED STATE:
    ________________________


Run:   25 / 50
Time taken for this run:   0.000s

DOCKED: MODEL        25
DOCKED: USER    Run = 25
DOCKED: USER
DOCKED: USER    Estimated Free Energy of Binding    =  -3.46 kcal/mol  [=(1)+(2)+(3)-(4)]
DOCKED: USER
DOCKED: USER    (1) Final Intermolecular Energy     =  -5.25 kcal/mol
DOCKED: USER        vdW + Hbond + desolv Energy     =  -5.26 kcal/mol
DOCKED: USER        Electrostatic Energy            =  +0.00 kcal/mol
DOCKED: USER        Moving Ligand-Fixed Receptor    =  -5.25 kcal/mol
DOCKED: USER        Moving Ligand-Moving Receptor   =  +0.00 kcal/mol
DOCKED: USER    (2) Final Total Internal Energy     =  -2.72 kcal/mol
DOCKED: USER    (3) Torsional Free Energy           =  +1.79 kcal/mol
DOCKED: USER    (4) Unbound System's Energy         =  -2.72 kcal/mol
DOCKED: USER
DOCKED: USER
DOCKED: REMARK  Name = 
DOCKED: REMARK  11 active torsions:
DOCKED: REMARK  status: ('A' for Active; 'I' for Inactive)
DOCKED: REMARK    1  A    between atoms: C_1  and  C_2
DOCKED: REMARK    2  A    between atoms: C_3  and  C_4
DOCKED: REMARK    3  A    between atoms: C_6  and  C_7
DOCKED: REMARK    4  A    between atoms: C_8  and  C_9
DOCKED: REMARK    5  A    between atoms: C_11  and  C_12
DOCKED: REMARK    6  A    between atoms: C_12  and  C_13
DOCKED: REMARK    7  A    between atoms: C_13  and  C_14
DOCKED: REMARK    8  A    between atoms: C_14  and  C_15
DOCKED: REMARK    9  A    between atoms: C_14  and  N_16
DOCKED: REMARK   10  A    between atoms: N_16  and  C_17
DOCKED: REMARK   11  A    between atoms: C_20  and  C_21
DOCKED: REMARK                            x       y       z     vdW  Elec       q    Type
DOCKED: REMARK                         _______ _______ _______ _____ _____    ______ ____
DOCKED: USER                              x       y       z     vdW  Elec       q    Type
DOCKED: USER                           _______ _______ _______ _____ _____    ______ ____
DOCKED: ROOT
DOCKED: ATOM      1  C   UNL     1       9.538  20.448  15.661 -0.34 -0.00    +0.022 C  
DOCKED: ENDROOT
DOCKED: BRANCH   1   2
DOCKED: ATOM      2  C   UNL     1      10.987  19.914  15.751 -0.42 -0.01    +0.067 C  
DOCKED: ATOM      3  C   UNL     1      11.180  18.700  14.830 -0.46 -0.01    +0.028 C  
DOCKED: BRANCH   2   4
DOCKED: ATOM      4  N   UNL     1      11.916  20.982  15.358 -0.22 +0.02    -0.340 N  
DOCKED: ATOM      5  H   UNL     1      11.681  21.430  14.470 +0.12 +0.01    +0.146 HD 
DOCKED: BRANCH   4   6
DOCKED: ATOM      6  C   UNL     1      12.302  21.960  16.298 -0.33 -0.00    +0.046 A  
DOCKED: ATOM      7  C   UNL     1      13.365  21.757  17.188 -0.32 -0.00    +0.024 A  
DOCKED: ATOM      8  C   UNL     1      13.789  22.754  18.069 -0.21 -0.00    +0.005 A  
DOCKED: ATOM      9  C   UNL     1      13.160  23.998  18.090 -0.14 +0.00    -0.049 A  
DOCKED: ATOM     10  C   UNL     1      13.608  25.051  19.055 -0.08 -0.00    +0.044 C  
DOCKED: ATOM     11  C   UNL     1      12.119  24.241  17.189 -0.18 +0.00    +0.025 A  
DOCKED: ATOM     12  C   UNL     1      11.707  23.239  16.299 -0.24 +0.00    +0.062 A  
DOCKED: ATOM     13 CL   UNL     1      10.408  23.606  15.210 -0.57 -0.00    -0.082 Cl 
DOCKED: ENDBRANCH   4   6
DOCKED: ENDBRANCH   2   4
DOCKED: ENDBRANCH   1   2
DOCKED: BRANCH   1  14
DOCKED: ATOM     14  C   UNL     1       8.684  19.987  16.853 -0.28 -0.00    +0.010 C  
DOCKED: BRANCH  14  22
DOCKED: ATOM     15  C   UNL     1       9.068  21.830  18.576 -0.07 +0.01    -0.048 C  
DOCKED: ATOM     16  C   UNL     1       9.175  23.165  18.610 -0.09 +0.01    -0.020 C  
DOCKED: ATOM     17  C   UNL     1       8.336  24.139  17.835 -0.19 -0.01    +0.012 C  
DOCKED: ATOM     18  C   UNL     1       7.768  25.174  18.811 -0.13 -0.01    +0.012 C  
DOCKED: ATOM     19  C   UNL     1       7.296  23.520  16.858 -0.26 +0.00    -0.007 C  
DOCKED: ATOM     20  C   UNL     1       5.891  24.144  16.917 -0.23 -0.01    +0.008 C  
DOCKED: ATOM     21  C   UNL     1       7.134  21.990  16.854 -0.23 -0.00    +0.012 C  
DOCKED: ATOM     22  C   UNL     1       8.064  21.115  17.713 -0.13 -0.00    +0.019 C  
DOCKED: BRANCH  15  25
DOCKED: ATOM     23  C   UNL     1      11.902  19.954  20.419 -0.09 -0.00    +0.035 C  
DOCKED: ATOM     24  C   UNL     1      11.168  20.867  19.489 -0.10 +0.00    -0.030 C  
DOCKED: ATOM     25  C   UNL     1       9.833  20.987  19.484 -0.06 +0.00    -0.001 C  
DOCKED: ENDBRANCH  15  25
DOCKED: ENDBRANCH  14  22
DOCKED: ENDBRANCH   1  14
DOCKED: TORSDOF 6
DOCKED: TER
DOCKED: ENDMDL
________________________________________________________________________________


    FINAL DOCKED STATE:
    ________________________


Run:   26 / 50
Time taken for this run:   0.000s

DOCKED: MODEL        26
DOCKED: USER    Run = 26
DOCKED: USER
DOCKED: USER    Estimated Free Energy of Binding    =  -3.46 kcal/mol  [=(1)+(2)+(3)-(4)]
DOCKED: USER
DOCKED: USER    (1) Final Intermolecular Energy     =  -5.25 kcal/mol
DOCKED: USER        vdW + Hbond + desolv Energy     =  -5.27 kcal/mol
DOCKED: USER        Electrostatic Energy            =  +0.02 kcal/mol
DOCKED: USER        Moving Ligand-Fixed Receptor    =  -5.25 kcal/mol
DOCKED: USER        Moving Ligand-Moving Receptor   =  +0.00 kcal/mol
DOCKED: USER    (2) Final Total Internal Energy     =  -2.72 kcal/mol
DOCKED: USER    (3) Torsional Free Energy           =  +1.79 kcal/mol
DOCKED: USER    (4) Unbound System's Energy         =  -2.72 kcal/mol
DOCKED: USER
DOCKED: USER
DOCKED: REMARK  Name = 
DOCKED: REMARK  11 active torsions:
DOCKED: REMARK  status: ('A' for Active; 'I' for Inactive)
DOCKED: REMARK    1  A    between atoms: C_1  and  C_2
DOCKED: REMARK    2  A    between atoms: C_3  and  C_4
DOCKED: REMARK    3  A    between atoms: C_6  and  C_7
DOCKED: REMARK    4  A    between atoms: C_8  and  C_9
DOCKED: REMARK    5  A    between atoms: C_11  and  C_12
DOCKED: REMARK    6  A    between atoms: C_12  and  C_13
DOCKED: REMARK    7  A    between atoms: C_13  and  C_14
DOCKED: REMARK    8  A    between atoms: C_14  and  C_15
DOCKED: REMARK    9  A    between atoms: C_14  and  N_16
DOCKED: REMARK   10  A    between atoms: N_16  and  C_17
DOCKED: REMARK   11  A    between atoms: C_20  and  C_21
DOCKED: REMARK                            x       y       z     vdW  Elec       q    Type
DOCKED: REMARK                         _______ _______ _______ _____ _____    ______ ____
DOCKED: USER                              x       y       z     vdW  Elec       q    Type
DOCKED: USER                           _______ _______ _______ _____ _____    ______ ____
DOCKED: ROOT
DOCKED: ATOM      1  C   UNL     1       8.058  19.199  17.990 -0.15 -0.00    +0.022 C  
DOCKED: ENDROOT
DOCKED: BRANCH   1   2
DOCKED: ATOM      2  C   UNL     1       8.776  18.195  18.923 -0.13 -0.01    +0.067 C  
DOCKED: ATOM      3  C   UNL     1       9.866  17.427  18.162 -0.23 -0.00    +0.028 C  
DOCKED: BRANCH   2   4
DOCKED: ATOM      4  N   UNL     1       9.383  18.931  20.041 -0.02 +0.04    -0.340 N  
DOCKED: ATOM      5  H   UNL     1       9.707  18.331  20.803 +0.01 -0.02    +0.146 HD 
DOCKED: BRANCH   4   6
DOCKED: ATOM      6  C   UNL     1      10.337  19.937  19.787 -0.07 -0.01    +0.046 A  
DOCKED: ATOM      7  C   UNL     1      11.669  19.634  19.475 -0.10 -0.00    +0.024 A  
DOCKED: ATOM      8  C   UNL     1      12.595  20.629  19.155 -0.14 -0.00    +0.005 A  
DOCKED: ATOM      9  C   UNL     1      12.218  21.971  19.136 -0.09 +0.01    -0.049 A  
DOCKED: ATOM     10  C   UNL     1      13.225  23.031  18.815 -0.12 -0.00    +0.044 C  
DOCKED: ATOM     11  C   UNL     1      10.887  22.300  19.410 -0.05 -0.00    +0.025 A  
DOCKED: ATOM     12  C   UNL     1       9.961  21.293  19.718 -0.03 -0.01    +0.062 A  
DOCKED: ATOM     13 CL   UNL     1       8.326  21.771  20.051 -0.02 +0.02    -0.082 Cl 
DOCKED: ENDBRANCH   4   6
DOCKED: ENDBRANCH   2   4
DOCKED: ENDBRANCH   1   2
DOCKED: BRANCH   1  14
DOCKED: ATOM     14  C   UNL     1       8.253  18.841  16.507 -0.27 -0.00    +0.010 C  
DOCKED: BRANCH  14  22
DOCKED: ATOM     15  C   UNL     1       8.363  21.304  15.850 -0.35 +0.01    -0.048 C  
DOCKED: ATOM     16  C   UNL     1       9.130  22.375  16.095 -0.35 +0.00    -0.020 C  
DOCKED: ATOM     17  C   UNL     1      10.629  22.386  16.182 -0.34 -0.00    +0.012 C  
DOCKED: ATOM     18  C   UNL     1      11.160  23.484  15.254 -0.26 +0.00    +0.012 C  
DOCKED: ATOM     19  C   UNL     1      11.334  21.009  16.037 -0.40 +0.00    -0.007 C  
DOCKED: ATOM     20  C   UNL     1      12.551  20.991  15.097 -0.48 -0.00    +0.008 C  
DOCKED: ATOM     21  C   UNL     1      10.461  19.785  15.704 -0.46 -0.00    +0.012 C  
DOCKED: ATOM     22  C   UNL     1       8.931  19.926  15.637 -0.39 -0.00    +0.019 C  
DOCKED: BRANCH  15  25
DOCKED: ATOM     23  C   UNL     1       4.706  22.555  15.793 -0.27 -0.01    +0.035 C  
DOCKED: ATOM     24  C   UNL     1       6.185  22.489  16.000 -0.29 +0.01    -0.030 C  
DOCKED: ATOM     25  C   UNL     1       6.928  21.435  15.636 -0.27 +0.00    -0.001 C  
DOCKED: ENDBRANCH  15  25
DOCKED: ENDBRANCH  14  22
DOCKED: ENDBRANCH   1  14
DOCKED: TORSDOF 6
DOCKED: TER
DOCKED: ENDMDL
________________________________________________________________________________


    FINAL DOCKED STATE:
    ________________________


Run:   27 / 50
Time taken for this run:   0.000s

DOCKED: MODEL        27
DOCKED: USER    Run = 27
DOCKED: USER
DOCKED: USER    Estimated Free Energy of Binding    =  -3.43 kcal/mol  [=(1)+(2)+(3)-(4)]
DOCKED: USER
DOCKED: USER    (1) Final Intermolecular Energy     =  -5.22 kcal/mol
DOCKED: USER        vdW + Hbond + desolv Energy     =  -5.22 kcal/mol
DOCKED: USER        Electrostatic Energy            =  -0.01 kcal/mol
DOCKED: USER        Moving Ligand-Fixed Receptor    =  -5.22 kcal/mol
DOCKED: USER        Moving Ligand-Moving Receptor   =  +0.00 kcal/mol
DOCKED: USER    (2) Final Total Internal Energy     =  -2.68 kcal/mol
DOCKED: USER    (3) Torsional Free Energy           =  +1.79 kcal/mol
DOCKED: USER    (4) Unbound System's Energy         =  -2.68 kcal/mol
DOCKED: USER
DOCKED: USER
DOCKED: REMARK  Name = 
DOCKED: REMARK  11 active torsions:
DOCKED: REMARK  status: ('A' for Active; 'I' for Inactive)
DOCKED: REMARK    1  A    between atoms: C_1  and  C_2
DOCKED: REMARK    2  A    between atoms: C_3  and  C_4
DOCKED: REMARK    3  A    between atoms: C_6  and  C_7
DOCKED: REMARK    4  A    between atoms: C_8  and  C_9
DOCKED: REMARK    5  A    between atoms: C_11  and  C_12
DOCKED: REMARK    6  A    between atoms: C_12  and  C_13
DOCKED: REMARK    7  A    between atoms: C_13  and  C_14
DOCKED: REMARK    8  A    between atoms: C_14  and  C_15
DOCKED: REMARK    9  A    between atoms: C_14  and  N_16
DOCKED: REMARK   10  A    between atoms: N_16  and  C_17
DOCKED: REMARK   11  A    between atoms: C_20  and  C_21
DOCKED: REMARK                            x       y       z     vdW  Elec       q    Type
DOCKED: REMARK                         _______ _______ _______ _____ _____    ______ ____
DOCKED: USER                              x       y       z     vdW  Elec       q    Type
DOCKED: USER                           _______ _______ _______ _____ _____    ______ ____
DOCKED: ROOT
DOCKED: ATOM      1  C   UNL     1       7.585  21.480  19.947 -0.02 -0.00    +0.022 C  
DOCKED: ENDROOT
DOCKED: BRANCH   1   2
DOCKED: ATOM      2  C   UNL     1       6.326  22.378  20.004 -0.01 -0.02    +0.067 C  
DOCKED: ATOM      3  C   UNL     1       6.546  23.567  20.950 -0.01 -0.01    +0.028 C  
DOCKED: BRANCH   2   4
DOCKED: ATOM      4  N   UNL     1       6.030  22.872  18.652 -0.01 +0.13    -0.340 N  
DOCKED: ATOM      5  H   UNL     1       5.342  23.628  18.630 +0.02 -0.07    +0.146 HD 
DOCKED: BRANCH   4   6
DOCKED: ATOM      6  C   UNL     1       7.083  23.161  17.761 -0.12 -0.02    +0.046 A  
DOCKED: ATOM      7  C   UNL     1       8.146  24.003  18.116 -0.14 -0.01    +0.024 A  
DOCKED: ATOM      8  C   UNL     1       9.223  24.231  17.257 -0.21 -0.00    +0.005 A  
DOCKED: ATOM      9  C   UNL     1       9.276  23.621  16.006 -0.31 +0.01    -0.049 A  
DOCKED: ATOM     10  C   UNL     1      10.424  23.891  15.084 -0.43 +0.00    +0.044 C  
DOCKED: ATOM     11  C   UNL     1       8.246  22.749  15.638 -0.29 -0.01    +0.025 A  
DOCKED: ATOM     12  C   UNL     1       7.174  22.515  16.511 -0.23 -0.02    +0.062 A  
DOCKED: ATOM     13 CL   UNL     1       5.929  21.424  15.992 -0.32 +0.02    -0.082 Cl 
DOCKED: ENDBRANCH   4   6
DOCKED: ENDBRANCH   2   4
DOCKED: ENDBRANCH   1   2
DOCKED: BRANCH   1  14
DOCKED: ATOM     14  C   UNL     1       7.278  20.104  19.333 -0.04 -0.00    +0.010 C  
DOCKED: BRANCH  14  22
DOCKED: ATOM     15  C   UNL     1       8.020  18.861  17.232 -0.23 +0.01    -0.048 C  
DOCKED: ATOM     16  C   UNL     1       8.668  19.121  16.089 -0.34 +0.00    -0.020 C  
DOCKED: ATOM     17  C   UNL     1       9.885  19.988  15.941 -0.43 -0.00    +0.012 C  
DOCKED: ATOM     18  C   UNL     1      10.955  19.195  15.183 -0.51 -0.00    +0.012 C  
DOCKED: ATOM     19  C   UNL     1      10.385  20.692  17.233 -0.24 +0.00    -0.007 C  
DOCKED: ATOM     20  C   UNL     1      11.902  20.613  17.478 -0.20 -0.00    +0.008 C  
DOCKED: ATOM     21  C   UNL     1       9.675  20.356  18.557 -0.12 -0.00    +0.012 C  
DOCKED: ATOM     22  C   UNL     1       8.439  19.439  18.557 -0.11 -0.00    +0.019 C  
DOCKED: BRANCH  15  25
DOCKED: ATOM     23  C   UNL     1       4.974  16.629  16.400 -0.37 -0.00    +0.035 C  
DOCKED: ATOM     24  C   UNL     1       6.093  17.614  16.280 -0.29 +0.00    -0.030 C  
DOCKED: ATOM     25  C   UNL     1       6.940  17.885  17.283 -0.24 +0.00    -0.001 C  
DOCKED: ENDBRANCH  15  25
DOCKED: ENDBRANCH  14  22
DOCKED: ENDBRANCH   1  14
DOCKED: TORSDOF 6
DOCKED: TER
DOCKED: ENDMDL
________________________________________________________________________________


    FINAL DOCKED STATE:
    ________________________


Run:   28 / 50
Time taken for this run:   0.000s

DOCKED: MODEL        28
DOCKED: USER    Run = 28
DOCKED: USER
DOCKED: USER    Estimated Free Energy of Binding    =  -3.89 kcal/mol  [=(1)+(2)+(3)-(4)]
DOCKED: USER
DOCKED: USER    (1) Final Intermolecular Energy     =  -5.68 kcal/mol
DOCKED: USER        vdW + Hbond + desolv Energy     =  -5.66 kcal/mol
DOCKED: USER        Electrostatic Energy            =  -0.02 kcal/mol
DOCKED: USER        Moving Ligand-Fixed Receptor    =  -5.68 kcal/mol
DOCKED: USER        Moving Ligand-Moving Receptor   =  +0.00 kcal/mol
DOCKED: USER    (2) Final Total Internal Energy     =  -2.38 kcal/mol
DOCKED: USER    (3) Torsional Free Energy           =  +1.79 kcal/mol
DOCKED: USER    (4) Unbound System's Energy         =  -2.38 kcal/mol
DOCKED: USER
DOCKED: USER
DOCKED: REMARK  Name = 
DOCKED: REMARK  11 active torsions:
DOCKED: REMARK  status: ('A' for Active; 'I' for Inactive)
DOCKED: REMARK    1  A    between atoms: C_1  and  C_2
DOCKED: REMARK    2  A    between atoms: C_3  and  C_4
DOCKED: REMARK    3  A    between atoms: C_6  and  C_7
DOCKED: REMARK    4  A    between atoms: C_8  and  C_9
DOCKED: REMARK    5  A    between atoms: C_11  and  C_12
DOCKED: REMARK    6  A    between atoms: C_12  and  C_13
DOCKED: REMARK    7  A    between atoms: C_13  and  C_14
DOCKED: REMARK    8  A    between atoms: C_14  and  C_15
DOCKED: REMARK    9  A    between atoms: C_14  and  N_16
DOCKED: REMARK   10  A    between atoms: N_16  and  C_17
DOCKED: REMARK   11  A    between atoms: C_20  and  C_21
DOCKED: REMARK                            x       y       z     vdW  Elec       q    Type
DOCKED: REMARK                         _______ _______ _______ _____ _____    ______ ____
DOCKED: USER                              x       y       z     vdW  Elec       q    Type
DOCKED: USER                           _______ _______ _______ _____ _____    ______ ____
DOCKED: ROOT
DOCKED: ATOM      1  C   UNL     1       8.280  22.841  15.621 -0.32 -0.01    +0.022 C  
DOCKED: ENDROOT
DOCKED: BRANCH   1   2
DOCKED: ATOM      2  C   UNL     1       7.159  22.252  16.509 -0.26 -0.02    +0.067 C  
DOCKED: ATOM      3  C   UNL     1       5.813  22.266  15.771 -0.29 -0.01    +0.028 C  
DOCKED: BRANCH   2   4
DOCKED: ATOM      4  N   UNL     1       7.509  20.871  16.869 -0.08 +0.07    -0.340 N  
DOCKED: ATOM      5  H   UNL     1       7.519  20.227  16.076 +0.05 -0.02    +0.146 HD 
DOCKED: BRANCH   4   6
DOCKED: ATOM      6  C   UNL     1       8.619  20.620  17.701 -0.12 -0.01    +0.046 A  
DOCKED: ATOM      7  C   UNL     1       8.671  21.072  19.026 -0.04 -0.00    +0.024 A  
DOCKED: ATOM      8  C   UNL     1       9.740  20.762  19.869 -0.04 -0.00    +0.005 A  
DOCKED: ATOM      9  C   UNL     1      10.802  19.983  19.413 -0.10 +0.01    -0.049 A  
DOCKED: ATOM     10  C   UNL     1      11.954  19.676  20.318 -0.11 -0.01    +0.044 C  
DOCKED: ATOM     11  C   UNL     1      10.761  19.489  18.105 -0.14 -0.00    +0.025 A  
DOCKED: ATOM     12  C   UNL     1       9.678  19.795  17.269 -0.21 -0.01    +0.062 A  
DOCKED: ATOM     13 CL   UNL     1       9.691  19.152  15.658 -0.46 +0.01    -0.082 Cl 
DOCKED: ENDBRANCH   4   6
DOCKED: ENDBRANCH   2   4
DOCKED: ENDBRANCH   1   2
DOCKED: BRANCH   1  14
DOCKED: ATOM     14  C   UNL     1       9.135  23.866  16.386 -0.31 -0.00    +0.010 C  
DOCKED: BRANCH  14  22
DOCKED: ATOM     15  C   UNL     1      11.483  24.417  17.220 -0.23 +0.00    -0.048 C  
DOCKED: ATOM     16  C   UNL     1      12.520  23.787  17.788 -0.18 +0.00    -0.020 C  
DOCKED: ATOM     17  C   UNL     1      13.026  22.419  17.431 -0.29 -0.00    +0.012 C  
DOCKED: ATOM     18  C   UNL     1      14.533  22.513  17.169 -0.34 -0.00    +0.012 C  
DOCKED: ATOM     19  C   UNL     1      12.220  21.653  16.345 -0.40 +0.00    -0.007 C  
DOCKED: ATOM     20  C   UNL     1      13.068  20.979  15.253 -0.43 -0.00    +0.008 C  
DOCKED: ATOM     21  C   UNL     1      11.060  22.393  15.653 -0.37 +0.00    +0.012 C  
DOCKED: ATOM     22  C   UNL     1      10.658  23.802  16.120 -0.37 -0.00    +0.019 C  
DOCKED: BRANCH  15  25
DOCKED: ATOM     23  C   UNL     1      11.606  28.054  18.523 -0.17 -0.01    +0.035 C  
DOCKED: ATOM     24  C   UNL     1      11.990  26.650  18.183 -0.20 +0.00    -0.030 C  
DOCKED: ATOM     25  C   UNL     1      11.174  25.804  17.540 -0.26 +0.00    -0.001 C  
DOCKED: ENDBRANCH  15  25
DOCKED: ENDBRANCH  14  22
DOCKED: ENDBRANCH   1  14
DOCKED: TORSDOF 6
DOCKED: TER
DOCKED: ENDMDL
________________________________________________________________________________


    FINAL DOCKED STATE:
    ________________________


Run:   29 / 50
Time taken for this run:   0.000s

DOCKED: MODEL        29
DOCKED: USER    Run = 29
DOCKED: USER
DOCKED: USER    Estimated Free Energy of Binding    =  -4.97 kcal/mol  [=(1)+(2)+(3)-(4)]
DOCKED: USER
DOCKED: USER    (1) Final Intermolecular Energy     =  -6.76 kcal/mol
DOCKED: USER        vdW + Hbond + desolv Energy     =  -6.75 kcal/mol
DOCKED: USER        Electrostatic Energy            =  -0.01 kcal/mol
DOCKED: USER        Moving Ligand-Fixed Receptor    =  -6.76 kcal/mol
DOCKED: USER        Moving Ligand-Moving Receptor   =  +0.00 kcal/mol
DOCKED: USER    (2) Final Total Internal Energy     =  -1.52 kcal/mol
DOCKED: USER    (3) Torsional Free Energy           =  +1.79 kcal/mol
DOCKED: USER    (4) Unbound System's Energy         =  -1.52 kcal/mol
DOCKED: USER
DOCKED: USER
DOCKED: REMARK  Name = 
DOCKED: REMARK  11 active torsions:
DOCKED: REMARK  status: ('A' for Active; 'I' for Inactive)
DOCKED: REMARK    1  A    between atoms: C_1  and  C_2
DOCKED: REMARK    2  A    between atoms: C_3  and  C_4
DOCKED: REMARK    3  A    between atoms: C_6  and  C_7
DOCKED: REMARK    4  A    between atoms: C_8  and  C_9
DOCKED: REMARK    5  A    between atoms: C_11  and  C_12
DOCKED: REMARK    6  A    between atoms: C_12  and  C_13
DOCKED: REMARK    7  A    between atoms: C_13  and  C_14
DOCKED: REMARK    8  A    between atoms: C_14  and  C_15
DOCKED: REMARK    9  A    between atoms: C_14  and  N_16
DOCKED: REMARK   10  A    between atoms: N_16  and  C_17
DOCKED: REMARK   11  A    between atoms: C_20  and  C_21
DOCKED: REMARK                            x       y       z     vdW  Elec       q    Type
DOCKED: REMARK                         _______ _______ _______ _____ _____    ______ ____
DOCKED: USER                              x       y       z     vdW  Elec       q    Type
DOCKED: USER                           _______ _______ _______ _____ _____    ______ ____
DOCKED: ROOT
DOCKED: ATOM      1  C   UNL     1       9.663  23.201  15.192 -0.38 -0.00    +0.022 C  
DOCKED: ENDROOT
DOCKED: BRANCH   1   2
DOCKED: ATOM      2  C   UNL     1       8.753  22.817  16.383 -0.30 -0.02    +0.067 C  
DOCKED: ATOM      3  C   UNL     1       8.552  24.012  17.325 -0.22 -0.01    +0.028 C  
DOCKED: BRANCH   2   4
DOCKED: ATOM      4  N   UNL     1       7.450  22.373  15.867 -0.17 +0.13    -0.340 N  
DOCKED: ATOM      5  H   UNL     1       7.289  22.615  14.887 -0.31 -0.10    +0.146 HD 
DOCKED: BRANCH   4   6
DOCKED: ATOM      6  C   UNL     1       7.008  21.056  16.111 -0.22 -0.01    +0.046 A  
DOCKED: ATOM      7  C   UNL     1       7.899  20.019  16.418 -0.26 -0.00    +0.024 A  
DOCKED: ATOM      8  C   UNL     1       7.452  18.733  16.728 -0.26 -0.00    +0.005 A  
DOCKED: ATOM      9  C   UNL     1       6.090  18.437  16.742 -0.21 +0.00    -0.049 A  
DOCKED: ATOM     10  C   UNL     1       5.624  17.049  17.053 -0.27 -0.00    +0.044 C  
DOCKED: ATOM     11  C   UNL     1       5.177  19.461  16.474 -0.12 -0.00    +0.025 A  
DOCKED: ATOM     12  C   UNL     1       5.633  20.753  16.176 -0.11 -0.01    +0.062 A  
DOCKED: ATOM     13 CL   UNL     1       4.446  21.976  15.850 -0.31 +0.02    -0.082 Cl 
DOCKED: ENDBRANCH   4   6
DOCKED: ENDBRANCH   2   4
DOCKED: ENDBRANCH   1   2
DOCKED: BRANCH   1  14
DOCKED: ATOM     14  C   UNL     1      10.991  23.815  15.664 -0.31 +0.00    +0.010 C  
DOCKED: BRANCH  14  22
DOCKED: ATOM     15  C   UNL     1      12.681  22.026  16.340 -0.37 +0.00    -0.048 C  
DOCKED: ATOM     16  C   UNL     1      13.942  21.955  16.786 -0.37 +0.00    -0.020 C  
DOCKED: ATOM     17  C   UNL     1      14.570  22.858  17.808 -0.30 -0.00    +0.012 C  
DOCKED: ATOM     18  C   UNL     1      15.210  21.989  18.896 -0.21 -0.00    +0.012 C  
DOCKED: ATOM     19  C   UNL     1      13.680  24.017  18.337 -0.16 +0.00    -0.007 C  
DOCKED: ATOM     20  C   UNL     1      13.693  24.210  19.863 -0.05 -0.00    +0.008 C  
DOCKED: ATOM     21  C   UNL     1      12.216  24.072  17.866 -0.18 -0.00    +0.012 C  
DOCKED: ATOM     22  C   UNL     1      11.706  23.069  16.816 -0.27 -0.00    +0.019 C  
DOCKED: BRANCH  15  25
DOCKED: ATOM     23  C   UNL     1      10.762  18.998  14.893 -0.47 -0.01    +0.035 C  
DOCKED: ATOM     24  C   UNL     1      11.265  20.050  15.829 -0.41 +0.00    -0.030 C  
DOCKED: ATOM     25  C   UNL     1      12.131  21.004  15.460 -0.49 +0.00    -0.001 C  
DOCKED: ENDBRANCH  15  25
DOCKED: ENDBRANCH  14  22
DOCKED: ENDBRANCH   1  14
DOCKED: TORSDOF 6
DOCKED: TER
DOCKED: ENDMDL
________________________________________________________________________________


    FINAL DOCKED STATE:
    ________________________


Run:   30 / 50
Time taken for this run:   0.000s

DOCKED: MODEL        30
DOCKED: USER    Run = 30
DOCKED: USER
DOCKED: USER    Estimated Free Energy of Binding    =  -3.60 kcal/mol  [=(1)+(2)+(3)-(4)]
DOCKED: USER
DOCKED: USER    (1) Final Intermolecular Energy     =  -5.39 kcal/mol
DOCKED: USER        vdW + Hbond + desolv Energy     =  -5.42 kcal/mol
DOCKED: USER        Electrostatic Energy            =  +0.02 kcal/mol
DOCKED: USER        Moving Ligand-Fixed Receptor    =  -5.39 kcal/mol
DOCKED: USER        Moving Ligand-Moving Receptor   =  +0.00 kcal/mol
DOCKED: USER    (2) Final Total Internal Energy     =  -2.72 kcal/mol
DOCKED: USER    (3) Torsional Free Energy           =  +1.79 kcal/mol
DOCKED: USER    (4) Unbound System's Energy         =  -2.72 kcal/mol
DOCKED: USER
DOCKED: USER
DOCKED: REMARK  Name = 
DOCKED: REMARK  11 active torsions:
DOCKED: REMARK  status: ('A' for Active; 'I' for Inactive)
DOCKED: REMARK    1  A    between atoms: C_1  and  C_2
DOCKED: REMARK    2  A    between atoms: C_3  and  C_4
DOCKED: REMARK    3  A    between atoms: C_6  and  C_7
DOCKED: REMARK    4  A    between atoms: C_8  and  C_9
DOCKED: REMARK    5  A    between atoms: C_11  and  C_12
DOCKED: REMARK    6  A    between atoms: C_12  and  C_13
DOCKED: REMARK    7  A    between atoms: C_13  and  C_14
DOCKED: REMARK    8  A    between atoms: C_14  and  C_15
DOCKED: REMARK    9  A    between atoms: C_14  and  N_16
DOCKED: REMARK   10  A    between atoms: N_16  and  C_17
DOCKED: REMARK   11  A    between atoms: C_20  and  C_21
DOCKED: REMARK                            x       y       z     vdW  Elec       q    Type
DOCKED: REMARK                         _______ _______ _______ _____ _____    ______ ____
DOCKED: USER                              x       y       z     vdW  Elec       q    Type
DOCKED: USER                           _______ _______ _______ _____ _____    ______ ____
DOCKED: ROOT
DOCKED: ATOM      1  C   UNL     1       9.780  18.783  18.409 -0.19 -0.00    +0.022 C  
DOCKED: ENDROOT
DOCKED: BRANCH   1   2
DOCKED: ATOM      2  C   UNL     1       9.396  19.992  19.296 -0.07 -0.01    +0.067 C  
DOCKED: ATOM      3  C   UNL     1       8.185  19.659  20.179 -0.03 -0.00    +0.028 C  
DOCKED: BRANCH   2   4
DOCKED: ATOM      4  N   UNL     1      10.542  20.347  20.144 -0.02 +0.05    -0.340 N  
DOCKED: ATOM      5  H   UNL     1      10.874  19.580  20.733 +0.01 -0.02    +0.146 HD 
DOCKED: BRANCH   4   6
DOCKED: ATOM      6  C   UNL     1      11.642  21.033  19.591 -0.08 -0.01    +0.046 A  
DOCKED: ATOM      7  C   UNL     1      12.827  20.373  19.239 -0.12 -0.00    +0.024 A  
DOCKED: ATOM      8  C   UNL     1      13.889  21.043  18.626 -0.21 -0.00    +0.005 A  
DOCKED: ATOM      9  C   UNL     1      13.800  22.405  18.342 -0.19 +0.01    -0.049 A  
DOCKED: ATOM     10  C   UNL     1      14.954  23.117  17.706 -0.29 -0.00    +0.044 C  
DOCKED: ATOM     11  C   UNL     1      12.617  23.082  18.650 -0.10 -0.00    +0.025 A  
DOCKED: ATOM     12  C   UNL     1      11.551  22.399  19.254 -0.05 -0.01    +0.062 A  
DOCKED: ATOM     13 CL   UNL     1      10.112  23.299  19.613 -0.05 +0.02    -0.082 Cl 
DOCKED: ENDBRANCH   4   6
DOCKED: ENDBRANCH   2   4
DOCKED: ENDBRANCH   1   2
DOCKED: BRANCH   1  14
DOCKED: ATOM     14  C   UNL     1       8.950  18.737  17.116 -0.27 -0.00    +0.010 C  
DOCKED: BRANCH  14  22
DOCKED: ATOM     15  C   UNL     1       8.532  21.061  16.147 -0.32 +0.01    -0.048 C  
DOCKED: ATOM     16  C   UNL     1       9.105  22.271  16.159 -0.34 +0.00    -0.020 C  
DOCKED: ATOM     17  C   UNL     1      10.577  22.553  16.058 -0.35 -0.00    +0.012 C  
DOCKED: ATOM     18  C   UNL     1      10.798  23.578  14.941 -0.32 +0.00    +0.012 C  
DOCKED: ATOM     19  C   UNL     1      11.509  21.310  16.000 -0.41 +0.00    -0.007 C  
DOCKED: ATOM     20  C   UNL     1      12.608  21.365  14.926 -0.33 +0.00    +0.008 C  
DOCKED: ATOM     21  C   UNL     1      10.852  19.920  15.934 -0.45 -0.00    +0.012 C  
DOCKED: ATOM     22  C   UNL     1       9.323  19.784  16.039 -0.41 -0.00    +0.019 C  
DOCKED: BRANCH  15  25
DOCKED: ATOM     23  C   UNL     1       4.743  21.640  15.642 -0.27 -0.01    +0.035 C  
DOCKED: ATOM     24  C   UNL     1       6.226  21.829  15.632 -0.28 +0.01    -0.030 C  
DOCKED: ATOM     25  C   UNL     1       7.084  20.910  16.098 -0.26 +0.00    -0.001 C  
DOCKED: ENDBRANCH  15  25
DOCKED: ENDBRANCH  14  22
DOCKED: ENDBRANCH   1  14
DOCKED: TORSDOF 6
DOCKED: TER
DOCKED: ENDMDL
________________________________________________________________________________


    FINAL DOCKED STATE:
    ________________________


Run:   31 / 50
Time taken for this run:   0.000s

DOCKED: MODEL        31
DOCKED: USER    Run = 31
DOCKED: USER
DOCKED: USER    Estimated Free Energy of Binding    =  -4.94 kcal/mol  [=(1)+(2)+(3)-(4)]
DOCKED: USER
DOCKED: USER    (1) Final Intermolecular Energy     =  -6.73 kcal/mol
DOCKED: USER        vdW + Hbond + desolv Energy     =  -6.73 kcal/mol
DOCKED: USER        Electrostatic Energy            =  +0.00 kcal/mol
DOCKED: USER        Moving Ligand-Fixed Receptor    =  -6.73 kcal/mol
DOCKED: USER        Moving Ligand-Moving Receptor   =  +0.00 kcal/mol
DOCKED: USER    (2) Final Total Internal Energy     =  -1.59 kcal/mol
DOCKED: USER    (3) Torsional Free Energy           =  +1.79 kcal/mol
DOCKED: USER    (4) Unbound System's Energy         =  -1.59 kcal/mol
DOCKED: USER
DOCKED: USER
DOCKED: REMARK  Name = 
DOCKED: REMARK  11 active torsions:
DOCKED: REMARK  status: ('A' for Active; 'I' for Inactive)
DOCKED: REMARK    1  A    between atoms: C_1  and  C_2
DOCKED: REMARK    2  A    between atoms: C_3  and  C_4
DOCKED: REMARK    3  A    between atoms: C_6  and  C_7
DOCKED: REMARK    4  A    between atoms: C_8  and  C_9
DOCKED: REMARK    5  A    between atoms: C_11  and  C_12
DOCKED: REMARK    6  A    between atoms: C_12  and  C_13
DOCKED: REMARK    7  A    between atoms: C_13  and  C_14
DOCKED: REMARK    8  A    between atoms: C_14  and  C_15
DOCKED: REMARK    9  A    between atoms: C_14  and  N_16
DOCKED: REMARK   10  A    between atoms: N_16  and  C_17
DOCKED: REMARK   11  A    between atoms: C_20  and  C_21
DOCKED: REMARK                            x       y       z     vdW  Elec       q    Type
DOCKED: REMARK                         _______ _______ _______ _____ _____    ______ ____
DOCKED: USER                              x       y       z     vdW  Elec       q    Type
DOCKED: USER                           _______ _______ _______ _____ _____    ______ ____
DOCKED: ROOT
DOCKED: ATOM      1  C   UNL     1       9.580  23.384  15.106 -0.33 -0.00    +0.022 C  
DOCKED: ENDROOT
DOCKED: BRANCH   1   2
DOCKED: ATOM      2  C   UNL     1       8.894  22.947  16.422 -0.29 -0.02    +0.067 C  
DOCKED: ATOM      3  C   UNL     1       8.802  24.121  17.406 -0.21 -0.01    +0.028 C  
DOCKED: BRANCH   2   4
DOCKED: ATOM      4  N   UNL     1       7.543  22.455  16.116 -0.17 +0.13    -0.340 N  
DOCKED: ATOM      5  H   UNL     1       7.185  22.765  15.211 -0.27 -0.08    +0.146 HD 
DOCKED: BRANCH   4   6
DOCKED: ATOM      6  C   UNL     1       7.228  21.094  16.312 -0.23 -0.01    +0.046 A  
DOCKED: ATOM      7  C   UNL     1       8.216  20.133  16.566 -0.26 -0.00    +0.024 A  
DOCKED: ATOM      8  C   UNL     1       7.895  18.800  16.830 -0.25 -0.00    +0.005 A  
DOCKED: ATOM      9  C   UNL     1       6.566  18.379  16.849 -0.22 +0.00    -0.049 A  
DOCKED: ATOM     10  C   UNL     1       6.236  16.942  17.110 -0.26 -0.00    +0.044 C  
DOCKED: ATOM     11  C   UNL     1       5.558  19.323  16.633 -0.13 -0.00    +0.025 A  
DOCKED: ATOM     12  C   UNL     1       5.888  20.662  16.382 -0.15 -0.01    +0.062 A  
DOCKED: ATOM     13 CL   UNL     1       4.588  21.782  16.120 -0.27 +0.02    -0.082 Cl 
DOCKED: ENDBRANCH   4   6
DOCKED: ENDBRANCH   2   4
DOCKED: ENDBRANCH   1   2
DOCKED: BRANCH   1  14
DOCKED: ATOM     14  C   UNL     1      11.110  23.436  15.250 -0.30 +0.00    +0.010 C  
DOCKED: BRANCH  14  22
DOCKED: ATOM     15  C   UNL     1      12.715  21.695  16.201 -0.41 +0.00    -0.048 C  
DOCKED: ATOM     16  C   UNL     1      13.918  21.653  16.790 -0.37 +0.00    -0.020 C  
DOCKED: ATOM     17  C   UNL     1      14.425  22.610  17.830 -0.31 -0.00    +0.012 C  
DOCKED: ATOM     18  C   UNL     1      14.939  21.800  19.025 -0.22 -0.00    +0.012 C  
DOCKED: ATOM     19  C   UNL     1      13.479  23.788  18.196 -0.17 +0.00    -0.007 C  
DOCKED: ATOM     20  C   UNL     1      13.320  24.056  19.702 -0.05 -0.00    +0.008 C  
DOCKED: ATOM     21  C   UNL     1      12.078  23.810  17.561 -0.20 -0.00    +0.012 C  
DOCKED: ATOM     22  C   UNL     1      11.691  22.753  16.512 -0.31 -0.00    +0.019 C  
DOCKED: BRANCH  15  25
DOCKED: ATOM     23  C   UNL     1      10.810  18.735  14.603 -0.41 -0.01    +0.035 C  
DOCKED: ATOM     24  C   UNL     1      11.200  19.845  15.525 -0.45 +0.00    -0.030 C  
DOCKED: ATOM     25  C   UNL     1      12.270  20.626  15.317 -0.47 +0.00    -0.001 C  
DOCKED: ENDBRANCH  15  25
DOCKED: ENDBRANCH  14  22
DOCKED: ENDBRANCH   1  14
DOCKED: TORSDOF 6
DOCKED: TER
DOCKED: ENDMDL
________________________________________________________________________________


    FINAL DOCKED STATE:
    ________________________


Run:   32 / 50
Time taken for this run:   0.000s

DOCKED: MODEL        32
DOCKED: USER    Run = 32
DOCKED: USER
DOCKED: USER    Estimated Free Energy of Binding    =  -4.71 kcal/mol  [=(1)+(2)+(3)-(4)]
DOCKED: USER
DOCKED: USER    (1) Final Intermolecular Energy     =  -6.50 kcal/mol
DOCKED: USER        vdW + Hbond + desolv Energy     =  -6.52 kcal/mol
DOCKED: USER        Electrostatic Energy            =  +0.02 kcal/mol
DOCKED: USER        Moving Ligand-Fixed Receptor    =  -6.50 kcal/mol
DOCKED: USER        Moving Ligand-Moving Receptor   =  +0.00 kcal/mol
DOCKED: USER    (2) Final Total Internal Energy     =  -1.67 kcal/mol
DOCKED: USER    (3) Torsional Free Energy           =  +1.79 kcal/mol
DOCKED: USER    (4) Unbound System's Energy         =  -1.67 kcal/mol
DOCKED: USER
DOCKED: USER
DOCKED: REMARK  Name = 
DOCKED: REMARK  11 active torsions:
DOCKED: REMARK  status: ('A' for Active; 'I' for Inactive)
DOCKED: REMARK    1  A    between atoms: C_1  and  C_2
DOCKED: REMARK    2  A    between atoms: C_3  and  C_4
DOCKED: REMARK    3  A    between atoms: C_6  and  C_7
DOCKED: REMARK    4  A    between atoms: C_8  and  C_9
DOCKED: REMARK    5  A    between atoms: C_11  and  C_12
DOCKED: REMARK    6  A    between atoms: C_12  and  C_13
DOCKED: REMARK    7  A    between atoms: C_13  and  C_14
DOCKED: REMARK    8  A    between atoms: C_14  and  C_15
DOCKED: REMARK    9  A    between atoms: C_14  and  N_16
DOCKED: REMARK   10  A    between atoms: N_16  and  C_17
DOCKED: REMARK   11  A    between atoms: C_20  and  C_21
DOCKED: REMARK                            x       y       z     vdW  Elec       q    Type
DOCKED: REMARK                         _______ _______ _______ _____ _____    ______ ____
DOCKED: USER                              x       y       z     vdW  Elec       q    Type
DOCKED: USER                           _______ _______ _______ _____ _____    ______ ____
DOCKED: ROOT
DOCKED: ATOM      1  C   UNL     1      13.892  21.465  16.719 -0.32 -0.00    +0.022 C  
DOCKED: ENDROOT
DOCKED: BRANCH   1   2
DOCKED: ATOM      2  C   UNL     1      13.554  21.865  18.175 -0.24 -0.01    +0.067 C  
DOCKED: ATOM      3  C   UNL     1      13.062  20.651  18.975 -0.17 -0.00    +0.028 C  
DOCKED: BRANCH   2   4
DOCKED: ATOM      4  N   UNL     1      14.758  22.419  18.811 -0.09 +0.04    -0.340 N  
DOCKED: ATOM      5  H   UNL     1      15.423  21.710  19.126 +0.04 -0.01    +0.146 HD 
DOCKED: BRANCH   4   6
DOCKED: ATOM      6  C   UNL     1      15.451  23.484  18.199 -0.21 -0.00    +0.046 A  
DOCKED: ATOM      7  C   UNL     1      16.586  23.272  17.406 -0.27 -0.00    +0.024 A  
DOCKED: ATOM      8  C   UNL     1      17.229  24.320  16.745 -0.28 -0.00    +0.005 A  
DOCKED: ATOM      9  C   UNL     1      16.754  25.626  16.854 -0.25 -0.00    -0.049 A  
DOCKED: ATOM     10  C   UNL     1      17.465  26.746  16.159 -0.30 +0.00    +0.044 C  
DOCKED: ATOM     11  C   UNL     1      15.603  25.863  17.610 -0.17 +0.00    +0.025 A  
DOCKED: ATOM     12  C   UNL     1      14.956  24.802  18.261 -0.13 -0.00    +0.062 A  
DOCKED: ATOM     13 CL   UNL     1      13.533  25.166  19.186 -0.10 +0.01    -0.082 Cl 
DOCKED: ENDBRANCH   4   6
DOCKED: ENDBRANCH   2   4
DOCKED: ENDBRANCH   1   2
DOCKED: BRANCH   1  14
DOCKED: ATOM     14  C   UNL     1      12.708  21.713  15.769 -0.40 -0.00    +0.010 C  
DOCKED: BRANCH  14  22
DOCKED: ATOM     15  C   UNL     1      10.463  22.883  16.088 -0.34 +0.00    -0.048 C  
DOCKED: ATOM     16  C   UNL     1       9.207  22.786  15.632 -0.40 +0.00    -0.020 C  
DOCKED: ATOM     17  C   UNL     1       8.449  21.512  15.396 -0.32 -0.00    +0.012 C  
DOCKED: ATOM     18  C   UNL     1       7.101  21.609  16.117 -0.31 -0.00    +0.012 C  
DOCKED: ATOM     19  C   UNL     1       9.232  20.193  15.648 -0.39 +0.00    -0.007 C  
DOCKED: ATOM     20  C   UNL     1       8.475  19.126  16.458 -0.34 -0.00    +0.008 C  
DOCKED: ATOM     21  C   UNL     1      10.656  20.299  16.221 -0.39 -0.00    +0.012 C  
DOCKED: ATOM     22  C   UNL     1      11.305  21.680  16.420 -0.33 -0.00    +0.019 C  
DOCKED: BRANCH  15  25
DOCKED: ATOM     23  C   UNL     1      11.097  26.437  17.470 -0.23 -0.01    +0.035 C  
DOCKED: ATOM     24  C   UNL     1      10.469  25.110  17.189 -0.26 +0.01    -0.030 C  
DOCKED: ATOM     25  C   UNL     1      11.048  24.174  16.423 -0.32 -0.00    -0.001 C  
DOCKED: ENDBRANCH  15  25
DOCKED: ENDBRANCH  14  22
DOCKED: ENDBRANCH   1  14
DOCKED: TORSDOF 6
DOCKED: TER
DOCKED: ENDMDL
________________________________________________________________________________


    FINAL DOCKED STATE:
    ________________________


Run:   33 / 50
Time taken for this run:   0.000s

DOCKED: MODEL        33
DOCKED: USER    Run = 33
DOCKED: USER
DOCKED: USER    Estimated Free Energy of Binding    =  -3.91 kcal/mol  [=(1)+(2)+(3)-(4)]
DOCKED: USER
DOCKED: USER    (1) Final Intermolecular Energy     =  -5.70 kcal/mol
DOCKED: USER        vdW + Hbond + desolv Energy     =  -5.72 kcal/mol
DOCKED: USER        Electrostatic Energy            =  +0.02 kcal/mol
DOCKED: USER        Moving Ligand-Fixed Receptor    =  -5.70 kcal/mol
DOCKED: USER        Moving Ligand-Moving Receptor   =  +0.00 kcal/mol
DOCKED: USER    (2) Final Total Internal Energy     =  -2.46 kcal/mol
DOCKED: USER    (3) Torsional Free Energy           =  +1.79 kcal/mol
DOCKED: USER    (4) Unbound System's Energy         =  -2.46 kcal/mol
DOCKED: USER
DOCKED: USER
DOCKED: REMARK  Name = 
DOCKED: REMARK  11 active torsions:
DOCKED: REMARK  status: ('A' for Active; 'I' for Inactive)
DOCKED: REMARK    1  A    between atoms: C_1  and  C_2
DOCKED: REMARK    2  A    between atoms: C_3  and  C_4
DOCKED: REMARK    3  A    between atoms: C_6  and  C_7
DOCKED: REMARK    4  A    between atoms: C_8  and  C_9
DOCKED: REMARK    5  A    between atoms: C_11  and  C_12
DOCKED: REMARK    6  A    between atoms: C_12  and  C_13
DOCKED: REMARK    7  A    between atoms: C_13  and  C_14
DOCKED: REMARK    8  A    between atoms: C_14  and  C_15
DOCKED: REMARK    9  A    between atoms: C_14  and  N_16
DOCKED: REMARK   10  A    between atoms: N_16  and  C_17
DOCKED: REMARK   11  A    between atoms: C_20  and  C_21
DOCKED: REMARK                            x       y       z     vdW  Elec       q    Type
DOCKED: REMARK                         _______ _______ _______ _____ _____    ______ ____
DOCKED: USER                              x       y       z     vdW  Elec       q    Type
DOCKED: USER                           _______ _______ _______ _____ _____    ______ ____
DOCKED: ROOT
DOCKED: ATOM      1  C   UNL     1       7.091  21.733  15.939 -0.32 -0.01    +0.022 C  
DOCKED: ENDROOT
DOCKED: BRANCH   1   2
DOCKED: ATOM      2  C   UNL     1       7.296  23.180  16.447 -0.27 -0.03    +0.067 C  
DOCKED: ATOM      3  C   UNL     1       5.946  23.865  16.705 -0.25 -0.02    +0.028 C  
DOCKED: BRANCH   2   4
DOCKED: ATOM      4  N   UNL     1       8.076  23.145  17.692 -0.05 +0.14    -0.340 N  
DOCKED: ATOM      5  H   UNL     1       7.753  22.445  18.363 +0.03 -0.05    +0.146 HD 
DOCKED: BRANCH   4   6
DOCKED: ATOM      6  C   UNL     1       9.485  23.141  17.640 -0.13 -0.01    +0.046 A  
DOCKED: ATOM      7  C   UNL     1      10.199  24.009  16.803 -0.26 -0.01    +0.024 A  
DOCKED: ATOM      8  C   UNL     1      11.595  24.051  16.805 -0.23 +0.00    +0.005 A  
DOCKED: ATOM      9  C   UNL     1      12.330  23.223  17.652 -0.16 +0.00    -0.049 A  
DOCKED: ATOM     10  C   UNL     1      13.826  23.260  17.629 -0.23 -0.00    +0.044 C  
DOCKED: ATOM     11  C   UNL     1      11.643  22.371  18.523 -0.10 -0.00    +0.025 A  
DOCKED: ATOM     12  C   UNL     1      10.241  22.344  18.523 -0.06 -0.01    +0.062 A  
DOCKED: ATOM     13 CL   UNL     1       9.452  21.262  19.627 -0.05 +0.02    -0.082 Cl 
DOCKED: ENDBRANCH   4   6
DOCKED: ENDBRANCH   2   4
DOCKED: ENDBRANCH   1   2
DOCKED: BRANCH   1  14
DOCKED: ATOM     14  C   UNL     1       8.419  21.084  15.513 -0.31 -0.00    +0.010 C  
DOCKED: BRANCH  14  22
DOCKED: ATOM     15  C   UNL     1       9.879  19.161  16.337 -0.38 +0.01    -0.048 C  
DOCKED: ATOM     16  C   UNL     1      10.009  18.396  17.429 -0.25 +0.00    -0.020 C  
DOCKED: ATOM     17  C   UNL     1       8.886  17.822  18.244 -0.21 -0.00    +0.012 C  
DOCKED: ATOM     18  C   UNL     1       9.123  16.316  18.401 -0.22 -0.00    +0.012 C  
DOCKED: ATOM     19  C   UNL     1       7.449  18.215  17.802 -0.19 +0.00    -0.007 C  
DOCKED: ATOM     20  C   UNL     1       6.443  17.054  17.735 -0.22 -0.00    +0.008 C  
DOCKED: ATOM     21  C   UNL     1       7.294  19.051  16.519 -0.26 -0.00    +0.012 C  
DOCKED: ATOM     22  C   UNL     1       8.541  19.565  15.779 -0.35 -0.00    +0.019 C  
DOCKED: BRANCH  15  25
DOCKED: ATOM     23  C   UNL     1      13.002  20.939  14.911 -0.35 -0.00    +0.035 C  
DOCKED: ATOM     24  C   UNL     1      11.850  20.572  15.791 -0.41 +0.00    -0.030 C  
DOCKED: ATOM     25  C   UNL     1      11.036  19.537  15.536 -0.49 +0.00    -0.001 C  
DOCKED: ENDBRANCH  15  25
DOCKED: ENDBRANCH  14  22
DOCKED: ENDBRANCH   1  14
DOCKED: TORSDOF 6
DOCKED: TER
DOCKED: ENDMDL
________________________________________________________________________________


    FINAL DOCKED STATE:
    ________________________


Run:   34 / 50
Time taken for this run:   0.000s

DOCKED: MODEL        34
DOCKED: USER    Run = 34
DOCKED: USER
DOCKED: USER    Estimated Free Energy of Binding    =  -3.81 kcal/mol  [=(1)+(2)+(3)-(4)]
DOCKED: USER
DOCKED: USER    (1) Final Intermolecular Energy     =  -5.60 kcal/mol
DOCKED: USER        vdW + Hbond + desolv Energy     =  -5.59 kcal/mol
DOCKED: USER        Electrostatic Energy            =  -0.01 kcal/mol
DOCKED: USER        Moving Ligand-Fixed Receptor    =  -5.60 kcal/mol
DOCKED: USER        Moving Ligand-Moving Receptor   =  +0.00 kcal/mol
DOCKED: USER    (2) Final Total Internal Energy     =  -2.67 kcal/mol
DOCKED: USER    (3) Torsional Free Energy           =  +1.79 kcal/mol
DOCKED: USER    (4) Unbound System's Energy         =  -2.67 kcal/mol
DOCKED: USER
DOCKED: USER
DOCKED: REMARK  Name = 
DOCKED: REMARK  11 active torsions:
DOCKED: REMARK  status: ('A' for Active; 'I' for Inactive)
DOCKED: REMARK    1  A    between atoms: C_1  and  C_2
DOCKED: REMARK    2  A    between atoms: C_3  and  C_4
DOCKED: REMARK    3  A    between atoms: C_6  and  C_7
DOCKED: REMARK    4  A    between atoms: C_8  and  C_9
DOCKED: REMARK    5  A    between atoms: C_11  and  C_12
DOCKED: REMARK    6  A    between atoms: C_12  and  C_13
DOCKED: REMARK    7  A    between atoms: C_13  and  C_14
DOCKED: REMARK    8  A    between atoms: C_14  and  C_15
DOCKED: REMARK    9  A    between atoms: C_14  and  N_16
DOCKED: REMARK   10  A    between atoms: N_16  and  C_17
DOCKED: REMARK   11  A    between atoms: C_20  and  C_21
DOCKED: REMARK                            x       y       z     vdW  Elec       q    Type
DOCKED: REMARK                         _______ _______ _______ _____ _____    ______ ____
DOCKED: USER                              x       y       z     vdW  Elec       q    Type
DOCKED: USER                           _______ _______ _______ _____ _____    ______ ____
DOCKED: ROOT
DOCKED: ATOM      1  C   UNL     1       9.537  20.234  15.314 -0.08 -0.00    +0.022 C  
DOCKED: ENDROOT
DOCKED: BRANCH   1   2
DOCKED: ATOM      2  C   UNL     1      11.003  19.856  15.634 -0.44 -0.01    +0.067 C  
DOCKED: ATOM      3  C   UNL     1      11.411  18.575  14.893 -0.30 -0.01    +0.028 C  
DOCKED: BRANCH   2   4
DOCKED: ATOM      4  N   UNL     1      11.881  20.961  15.226 -0.20 +0.02    -0.340 N  
DOCKED: ATOM      5  H   UNL     1      12.031  21.020  14.217 +0.05 -0.00    +0.146 HD 
DOCKED: BRANCH   4   6
DOCKED: ATOM      6  C   UNL     1      11.679  22.253  15.754 -0.32 +0.00    +0.046 A  
DOCKED: ATOM      7  C   UNL     1      10.662  23.095  15.284 -0.32 +0.00    +0.024 A  
DOCKED: ATOM      8  C   UNL     1      10.419  24.346  15.856 -0.34 -0.00    +0.005 A  
DOCKED: ATOM      9  C   UNL     1      11.190  24.800  16.925 -0.23 +0.00    -0.049 A  
DOCKED: ATOM     10  C   UNL     1      10.935  26.153  17.515 -0.24 -0.01    +0.044 C  
DOCKED: ATOM     11  C   UNL     1      12.189  23.967  17.437 -0.18 -0.00    +0.025 A  
DOCKED: ATOM     12  C   UNL     1      12.418  22.708  16.864 -0.23 -0.00    +0.062 A  
DOCKED: ATOM     13 CL   UNL     1      13.676  21.725  17.546 -0.43 +0.01    -0.082 Cl 
DOCKED: ENDBRANCH   4   6
DOCKED: ENDBRANCH   2   4
DOCKED: ENDBRANCH   1   2
DOCKED: BRANCH   1  14
DOCKED: ATOM     14  C   UNL     1       8.559  19.656  16.351 -0.35 -0.00    +0.010 C  
DOCKED: BRANCH  14  22
DOCKED: ATOM     15  C   UNL     1       8.433  21.602  17.997 -0.10 +0.01    -0.048 C  
DOCKED: ATOM     16  C   UNL     1       8.304  22.935  17.968 -0.13 +0.01    -0.020 C  
DOCKED: ATOM     17  C   UNL     1       7.397  23.714  17.060 -0.24 -0.01    +0.012 C  
DOCKED: ATOM     18  C   UNL     1       6.558  24.669  17.917 -0.16 -0.01    +0.012 C  
DOCKED: ATOM     19  C   UNL     1       6.590  22.885  16.022 -0.30 +0.00    -0.007 C  
DOCKED: ATOM     20  C   UNL     1       5.100  23.252  15.907 -0.29 -0.00    +0.008 C  
DOCKED: ATOM     21  C   UNL     1       6.696  21.351  16.087 -0.29 -0.00    +0.012 C  
DOCKED: ATOM     22  C   UNL     1       7.665  20.688  17.081 -0.20 -0.00    +0.019 C  
DOCKED: BRANCH  15  25
DOCKED: ATOM     23  C   UNL     1      11.341  20.201  20.126 -0.09 -0.01    +0.035 C  
DOCKED: ATOM     24  C   UNL     1      10.570  20.929  19.072 -0.10 +0.00    -0.030 C  
DOCKED: ATOM     25  C   UNL     1       9.231  20.942  19.023 -0.07 +0.00    -0.001 C  
DOCKED: ENDBRANCH  15  25
DOCKED: ENDBRANCH  14  22
DOCKED: ENDBRANCH   1  14
DOCKED: TORSDOF 6
DOCKED: TER
DOCKED: ENDMDL
________________________________________________________________________________


    FINAL DOCKED STATE:
    ________________________


Run:   35 / 50
Time taken for this run:   0.000s

DOCKED: MODEL        35
DOCKED: USER    Run = 35
DOCKED: USER
DOCKED: USER    Estimated Free Energy of Binding    =  -4.85 kcal/mol  [=(1)+(2)+(3)-(4)]
DOCKED: USER
DOCKED: USER    (1) Final Intermolecular Energy     =  -6.64 kcal/mol
DOCKED: USER        vdW + Hbond + desolv Energy     =  -6.62 kcal/mol
DOCKED: USER        Electrostatic Energy            =  -0.02 kcal/mol
DOCKED: USER        Moving Ligand-Fixed Receptor    =  -6.64 kcal/mol
DOCKED: USER        Moving Ligand-Moving Receptor   =  +0.00 kcal/mol
DOCKED: USER    (2) Final Total Internal Energy     =  -1.54 kcal/mol
DOCKED: USER    (3) Torsional Free Energy           =  +1.79 kcal/mol
DOCKED: USER    (4) Unbound System's Energy         =  -1.54 kcal/mol
DOCKED: USER
DOCKED: USER
DOCKED: REMARK  Name = 
DOCKED: REMARK  11 active torsions:
DOCKED: REMARK  status: ('A' for Active; 'I' for Inactive)
DOCKED: REMARK    1  A    between atoms: C_1  and  C_2
DOCKED: REMARK    2  A    between atoms: C_3  and  C_4
DOCKED: REMARK    3  A    between atoms: C_6  and  C_7
DOCKED: REMARK    4  A    between atoms: C_8  and  C_9
DOCKED: REMARK    5  A    between atoms: C_11  and  C_12
DOCKED: REMARK    6  A    between atoms: C_12  and  C_13
DOCKED: REMARK    7  A    between atoms: C_13  and  C_14
DOCKED: REMARK    8  A    between atoms: C_14  and  C_15
DOCKED: REMARK    9  A    between atoms: C_14  and  N_16
DOCKED: REMARK   10  A    between atoms: N_16  and  C_17
DOCKED: REMARK   11  A    between atoms: C_20  and  C_21
DOCKED: REMARK                            x       y       z     vdW  Elec       q    Type
DOCKED: REMARK                         _______ _______ _______ _____ _____    ______ ____
DOCKED: USER                              x       y       z     vdW  Elec       q    Type
DOCKED: USER                           _______ _______ _______ _____ _____    ______ ____
DOCKED: ROOT
DOCKED: ATOM      1  C   UNL     1      14.491  21.373  17.695 -0.31 -0.01    +0.022 C  
DOCKED: ENDROOT
DOCKED: BRANCH   1   2
DOCKED: ATOM      2  C   UNL     1      15.233  22.320  18.668 -0.22 -0.01    +0.067 C  
DOCKED: ATOM      3  C   UNL     1      15.678  21.567  19.930 -0.14 -0.00    +0.028 C  
DOCKED: BRANCH   2   4
DOCKED: ATOM      4  N   UNL     1      16.410  22.879  17.988 -0.13 +0.06    -0.340 N  
DOCKED: ATOM      5  H   UNL     1      16.787  22.278  17.253 -0.35 -0.07    +0.146 HD 
DOCKED: BRANCH   4   6
DOCKED: ATOM      6  C   UNL     1      16.399  24.219  17.551 -0.25 -0.00    +0.046 A  
DOCKED: ATOM      7  C   UNL     1      15.243  25.009  17.605 -0.13 +0.00    +0.024 A  
DOCKED: ATOM      8  C   UNL     1      15.253  26.356  17.237 -0.15 +0.00    +0.005 A  
DOCKED: ATOM      9  C   UNL     1      16.428  26.964  16.799 -0.22 -0.01    -0.049 A  
DOCKED: ATOM     10  C   UNL     1      16.421  28.403  16.384 -0.21 +0.01    +0.044 C  
DOCKED: ATOM     11  C   UNL     1      17.605  26.210  16.766 -0.23 -0.00    +0.025 A  
DOCKED: ATOM     12  C   UNL     1      17.589  24.861  17.150 -0.24 -0.01    +0.062 A  
DOCKED: ATOM     13 CL   UNL     1      19.083  23.982  17.083 -0.34 +0.02    -0.082 Cl 
DOCKED: ENDBRANCH   4   6
DOCKED: ENDBRANCH   2   4
DOCKED: ENDBRANCH   1   2
DOCKED: BRANCH   1  14
DOCKED: ATOM     14  C   UNL     1      13.549  22.145  16.755 -0.37 -0.00    +0.010 C  
DOCKED: BRANCH  14  22
DOCKED: ATOM     15  C   UNL     1      11.311  23.370  16.710 -0.27 +0.00    -0.048 C  
DOCKED: ATOM     16  C   UNL     1      10.154  23.322  16.038 -0.38 +0.00    -0.020 C  
DOCKED: ATOM     17  C   UNL     1       9.419  22.077  15.632 -0.33 -0.00    +0.012 C  
DOCKED: ATOM     18  C   UNL     1       7.967  22.195  16.108 -0.34 -0.00    +0.012 C  
DOCKED: ATOM     19  C   UNL     1      10.113  20.730  15.976 -0.37 +0.00    -0.007 C  
DOCKED: ATOM     20  C   UNL     1       9.200  19.665  16.607 -0.34 -0.00    +0.008 C  
DOCKED: ATOM     21  C   UNL     1      11.416  20.780  16.794 -0.31 -0.00    +0.012 C  
DOCKED: ATOM     22  C   UNL     1      12.052  22.135  17.148 -0.28 -0.00    +0.019 C  
DOCKED: BRANCH  15  25
DOCKED: ATOM     23  C   UNL     1      11.763  27.028  17.880 -0.23 -0.00    +0.035 C  
DOCKED: ATOM     24  C   UNL     1      11.144  25.742  17.433 -0.25 +0.00    -0.030 C  
DOCKED: ATOM     25  C   UNL     1      11.858  24.634  17.184 -0.24 -0.00    -0.001 C  
DOCKED: ENDBRANCH  15  25
DOCKED: ENDBRANCH  14  22
DOCKED: ENDBRANCH   1  14
DOCKED: TORSDOF 6
DOCKED: TER
DOCKED: ENDMDL
________________________________________________________________________________


    FINAL DOCKED STATE:
    ________________________


Run:   36 / 50
Time taken for this run:   0.000s

DOCKED: MODEL        36
DOCKED: USER    Run = 36
DOCKED: USER
DOCKED: USER    Estimated Free Energy of Binding    =  -4.96 kcal/mol  [=(1)+(2)+(3)-(4)]
DOCKED: USER
DOCKED: USER    (1) Final Intermolecular Energy     =  -6.75 kcal/mol
DOCKED: USER        vdW + Hbond + desolv Energy     =  -6.74 kcal/mol
DOCKED: USER        Electrostatic Energy            =  -0.01 kcal/mol
DOCKED: USER        Moving Ligand-Fixed Receptor    =  -6.75 kcal/mol
DOCKED: USER        Moving Ligand-Moving Receptor   =  +0.00 kcal/mol
DOCKED: USER    (2) Final Total Internal Energy     =  -1.52 kcal/mol
DOCKED: USER    (3) Torsional Free Energy           =  +1.79 kcal/mol
DOCKED: USER    (4) Unbound System's Energy         =  -1.52 kcal/mol
DOCKED: USER
DOCKED: USER
DOCKED: REMARK  Name = 
DOCKED: REMARK  11 active torsions:
DOCKED: REMARK  status: ('A' for Active; 'I' for Inactive)
DOCKED: REMARK    1  A    between atoms: C_1  and  C_2
DOCKED: REMARK    2  A    between atoms: C_3  and  C_4
DOCKED: REMARK    3  A    between atoms: C_6  and  C_7
DOCKED: REMARK    4  A    between atoms: C_8  and  C_9
DOCKED: REMARK    5  A    between atoms: C_11  and  C_12
DOCKED: REMARK    6  A    between atoms: C_12  and  C_13
DOCKED: REMARK    7  A    between atoms: C_13  and  C_14
DOCKED: REMARK    8  A    between atoms: C_14  and  C_15
DOCKED: REMARK    9  A    between atoms: C_14  and  N_16
DOCKED: REMARK   10  A    between atoms: N_16  and  C_17
DOCKED: REMARK   11  A    between atoms: C_20  and  C_21
DOCKED: REMARK                            x       y       z     vdW  Elec       q    Type
DOCKED: REMARK                         _______ _______ _______ _____ _____    ______ ____
DOCKED: USER                              x       y       z     vdW  Elec       q    Type
DOCKED: USER                           _______ _______ _______ _____ _____    ______ ____
DOCKED: ROOT
DOCKED: ATOM      1  C   UNL     1       9.554  22.980  15.261 -0.38 -0.00    +0.022 C  
DOCKED: ENDROOT
DOCKED: BRANCH   1   2
DOCKED: ATOM      2  C   UNL     1       8.602  22.892  16.477 -0.28 -0.02    +0.067 C  
DOCKED: ATOM      3  C   UNL     1       8.447  24.263  17.150 -0.21 -0.02    +0.028 C  
DOCKED: BRANCH   2   4
DOCKED: ATOM      4  N   UNL     1       7.288  22.416  16.023 -0.17 +0.13    -0.340 N  
DOCKED: ATOM      5  H   UNL     1       7.045  22.714  15.076 -0.26 -0.09    +0.146 HD 
DOCKED: BRANCH   4   6
DOCKED: ATOM      6  C   UNL     1       6.926  21.066  16.206 -0.22 -0.01    +0.046 A  
DOCKED: ATOM      7  C   UNL     1       7.870  20.083  16.531 -0.25 -0.00    +0.024 A  
DOCKED: ATOM      8  C   UNL     1       7.499  18.760  16.780 -0.26 -0.00    +0.005 A  
DOCKED: ATOM      9  C   UNL     1       6.162  18.372  16.714 -0.21 +0.00    -0.049 A  
DOCKED: ATOM     10  C   UNL     1       5.779  16.946  16.960 -0.29 -0.00    +0.044 C  
DOCKED: ATOM     11  C   UNL     1       5.194  19.339  16.425 -0.12 -0.00    +0.025 A  
DOCKED: ATOM     12  C   UNL     1       5.574  20.668  16.188 -0.10 -0.01    +0.062 A  
DOCKED: ATOM     13 CL   UNL     1       4.323  21.817  15.833 -0.30 +0.02    -0.082 Cl 
DOCKED: ENDBRANCH   4   6
DOCKED: ENDBRANCH   2   4
DOCKED: ENDBRANCH   1   2
DOCKED: BRANCH   1  14
DOCKED: ATOM     14  C   UNL     1      10.901  23.622  15.635 -0.38 +0.00    +0.010 C  
DOCKED: BRANCH  14  22
DOCKED: ATOM     15  C   UNL     1      12.707  21.951  16.313 -0.38 +0.00    -0.048 C  
DOCKED: ATOM     16  C   UNL     1      13.975  21.964  16.743 -0.36 +0.00    -0.020 C  
DOCKED: ATOM     17  C   UNL     1      14.559  22.919  17.744 -0.30 -0.00    +0.012 C  
DOCKED: ATOM     18  C   UNL     1      15.265  22.106  18.835 -0.22 -0.00    +0.012 C  
DOCKED: ATOM     19  C   UNL     1      13.605  24.028  18.269 -0.17 +0.00    -0.007 C  
DOCKED: ATOM     20  C   UNL     1      13.625  24.243  19.792 -0.05 -0.00    +0.008 C  
DOCKED: ATOM     21  C   UNL     1      12.134  23.985  17.817 -0.18 -0.00    +0.012 C  
DOCKED: ATOM     22  C   UNL     1      11.674  22.938  16.788 -0.28 -0.00    +0.019 C  
DOCKED: BRANCH  15  25
DOCKED: ATOM     23  C   UNL     1      10.811  18.902  14.879 -0.48 -0.01    +0.035 C  
DOCKED: ATOM     24  C   UNL     1      11.255  20.005  15.786 -0.42 +0.00    -0.030 C  
DOCKED: ATOM     25  C   UNL     1      12.210  20.884  15.454 -0.48 +0.00    -0.001 C  
DOCKED: ENDBRANCH  15  25
DOCKED: ENDBRANCH  14  22
DOCKED: ENDBRANCH   1  14
DOCKED: TORSDOF 6
DOCKED: TER
DOCKED: ENDMDL
________________________________________________________________________________


    FINAL DOCKED STATE:
    ________________________


Run:   37 / 50
Time taken for this run:   0.000s

DOCKED: MODEL        37
DOCKED: USER    Run = 37
DOCKED: USER
DOCKED: USER    Estimated Free Energy of Binding    =  -3.33 kcal/mol  [=(1)+(2)+(3)-(4)]
DOCKED: USER
DOCKED: USER    (1) Final Intermolecular Energy     =  -5.12 kcal/mol
DOCKED: USER        vdW + Hbond + desolv Energy     =  -5.09 kcal/mol
DOCKED: USER        Electrostatic Energy            =  -0.02 kcal/mol
DOCKED: USER        Moving Ligand-Fixed Receptor    =  -5.12 kcal/mol
DOCKED: USER        Moving Ligand-Moving Receptor   =  +0.00 kcal/mol
DOCKED: USER    (2) Final Total Internal Energy     =  -2.65 kcal/mol
DOCKED: USER    (3) Torsional Free Energy           =  +1.79 kcal/mol
DOCKED: USER    (4) Unbound System's Energy         =  -2.65 kcal/mol
DOCKED: USER
DOCKED: USER
DOCKED: REMARK  Name = 
DOCKED: REMARK  11 active torsions:
DOCKED: REMARK  status: ('A' for Active; 'I' for Inactive)
DOCKED: REMARK    1  A    between atoms: C_1  and  C_2
DOCKED: REMARK    2  A    between atoms: C_3  and  C_4
DOCKED: REMARK    3  A    between atoms: C_6  and  C_7
DOCKED: REMARK    4  A    between atoms: C_8  and  C_9
DOCKED: REMARK    5  A    between atoms: C_11  and  C_12
DOCKED: REMARK    6  A    between atoms: C_12  and  C_13
DOCKED: REMARK    7  A    between atoms: C_13  and  C_14
DOCKED: REMARK    8  A    between atoms: C_14  and  C_15
DOCKED: REMARK    9  A    between atoms: C_14  and  N_16
DOCKED: REMARK   10  A    between atoms: N_16  and  C_17
DOCKED: REMARK   11  A    between atoms: C_20  and  C_21
DOCKED: REMARK                            x       y       z     vdW  Elec       q    Type
DOCKED: REMARK                         _______ _______ _______ _____ _____    ______ ____
DOCKED: USER                              x       y       z     vdW  Elec       q    Type
DOCKED: USER                           _______ _______ _______ _____ _____    ______ ____
DOCKED: ROOT
DOCKED: ATOM      1  C   UNL     1       8.002  21.416  17.659 -0.13 -0.01    +0.022 C  
DOCKED: ENDROOT
DOCKED: BRANCH   1   2
DOCKED: ATOM      2  C   UNL     1       7.400  21.268  16.241 -0.28 -0.02    +0.067 C  
DOCKED: ATOM      3  C   UNL     1       6.247  22.259  16.031 -0.29 -0.01    +0.028 C  
DOCKED: BRANCH   2   4
DOCKED: ATOM      4  N   UNL     1       8.452  21.520  15.246 -0.18 +0.08    -0.340 N  
DOCKED: ATOM      5  H   UNL     1       8.180  22.181  14.515 -0.42 -0.07    +0.146 HD 
DOCKED: BRANCH   4   6
DOCKED: ATOM      6  C   UNL     1       9.770  21.790  15.667 -0.20 -0.01    +0.046 A  
DOCKED: ATOM      7  C   UNL     1      10.164  23.062  16.102 -0.32 -0.00    +0.024 A  
DOCKED: ATOM      8  C   UNL     1      11.451  23.309  16.585 -0.26 -0.00    +0.005 A  
DOCKED: ATOM      9  C   UNL     1      12.394  22.285  16.651 -0.28 +0.00    -0.049 A  
DOCKED: ATOM     10  C   UNL     1      13.778  22.567  17.149 -0.31 -0.00    +0.044 C  
DOCKED: ATOM     11  C   UNL     1      12.019  20.998  16.256 -0.34 -0.00    +0.025 A  
DOCKED: ATOM     12  C   UNL     1      10.721  20.755  15.784 -0.27 -0.01    +0.062 A  
DOCKED: ATOM     13 CL   UNL     1      10.321  19.135  15.307 -0.56 +0.01    -0.082 Cl 
DOCKED: ENDBRANCH   4   6
DOCKED: ENDBRANCH   2   4
DOCKED: ENDBRANCH   1   2
DOCKED: BRANCH   1  14
DOCKED: ATOM     14  C   UNL     1       7.982  20.085  18.429 -0.09 -0.00    +0.010 C  
DOCKED: BRANCH  14  22
DOCKED: ATOM     15  C   UNL     1      10.263  19.084  18.985 -0.15 +0.01    -0.048 C  
DOCKED: ATOM     16  C   UNL     1      11.535  19.488  19.099 -0.06 +0.00    -0.020 C  
DOCKED: ATOM     17  C   UNL     1      12.003  20.768  19.730 -0.11 -0.00    +0.012 C  
DOCKED: ATOM     18  C   UNL     1      13.082  20.432  20.765 -0.09 -0.00    +0.012 C  
DOCKED: ATOM     19  C   UNL     1      10.890  21.729  20.233 -0.04 +0.00    -0.007 C  
DOCKED: ATOM     20  C   UNL     1      11.116  22.315  21.637 -0.01 -0.00    +0.008 C  
DOCKED: ATOM     21  C   UNL     1       9.431  21.247  20.151 -0.03 -0.00    +0.012 C  
DOCKED: ATOM     22  C   UNL     1       9.101  19.901  19.483 -0.06 -0.00    +0.019 C  
DOCKED: BRANCH  15  25
DOCKED: ATOM     23  C   UNL     1       8.729  15.571  18.489 -0.21 +0.00    +0.035 C  
DOCKED: ATOM     24  C   UNL     1       9.000  16.945  19.011 -0.18 +0.00    -0.030 C  
DOCKED: ATOM     25  C   UNL     1       9.933  17.754  18.491 -0.22 +0.00    -0.001 C  
DOCKED: ENDBRANCH  15  25
DOCKED: ENDBRANCH  14  22
DOCKED: ENDBRANCH   1  14
DOCKED: TORSDOF 6
DOCKED: TER
DOCKED: ENDMDL
________________________________________________________________________________


    FINAL DOCKED STATE:
    ________________________


Run:   38 / 50
Time taken for this run:   0.000s

DOCKED: MODEL        38
DOCKED: USER    Run = 38
DOCKED: USER
DOCKED: USER    Estimated Free Energy of Binding    =  -4.63 kcal/mol  [=(1)+(2)+(3)-(4)]
DOCKED: USER
DOCKED: USER    (1) Final Intermolecular Energy     =  -6.42 kcal/mol
DOCKED: USER        vdW + Hbond + desolv Energy     =  -6.40 kcal/mol
DOCKED: USER        Electrostatic Energy            =  -0.03 kcal/mol
DOCKED: USER        Moving Ligand-Fixed Receptor    =  -6.42 kcal/mol
DOCKED: USER        Moving Ligand-Moving Receptor   =  +0.00 kcal/mol
DOCKED: USER    (2) Final Total Internal Energy     =  -1.60 kcal/mol
DOCKED: USER    (3) Torsional Free Energy           =  +1.79 kcal/mol
DOCKED: USER    (4) Unbound System's Energy         =  -1.60 kcal/mol
DOCKED: USER
DOCKED: USER
DOCKED: REMARK  Name = 
DOCKED: REMARK  11 active torsions:
DOCKED: REMARK  status: ('A' for Active; 'I' for Inactive)
DOCKED: REMARK    1  A    between atoms: C_1  and  C_2
DOCKED: REMARK    2  A    between atoms: C_3  and  C_4
DOCKED: REMARK    3  A    between atoms: C_6  and  C_7
DOCKED: REMARK    4  A    between atoms: C_8  and  C_9
DOCKED: REMARK    5  A    between atoms: C_11  and  C_12
DOCKED: REMARK    6  A    between atoms: C_12  and  C_13
DOCKED: REMARK    7  A    between atoms: C_13  and  C_14
DOCKED: REMARK    8  A    between atoms: C_14  and  C_15
DOCKED: REMARK    9  A    between atoms: C_14  and  N_16
DOCKED: REMARK   10  A    between atoms: N_16  and  C_17
DOCKED: REMARK   11  A    between atoms: C_20  and  C_21
DOCKED: REMARK                            x       y       z     vdW  Elec       q    Type
DOCKED: REMARK                         _______ _______ _______ _____ _____    ______ ____
DOCKED: USER                              x       y       z     vdW  Elec       q    Type
DOCKED: USER                           _______ _______ _______ _____ _____    ______ ____
DOCKED: ROOT
DOCKED: ATOM      1  C   UNL     1      15.058  21.883  18.608 -0.22 -0.00    +0.022 C  
DOCKED: ENDROOT
DOCKED: BRANCH   1   2
DOCKED: ATOM      2  C   UNL     1      16.054  23.019  18.941 -0.17 -0.01    +0.067 C  
DOCKED: ATOM      3  C   UNL     1      16.855  22.690  20.208 -0.11 -0.00    +0.028 C  
DOCKED: BRANCH   2   4
DOCKED: ATOM      4  N   UNL     1      16.975  23.194  17.809 -0.12 +0.06    -0.340 N  
DOCKED: ATOM      5  H   UNL     1      16.897  22.467  17.095 -0.32 -0.06    +0.146 HD 
DOCKED: BRANCH   4   6
DOCKED: ATOM      6  C   UNL     1      17.099  24.456  17.191 -0.27 -0.00    +0.046 A  
DOCKED: ATOM      7  C   UNL     1      16.022  25.348  17.104 -0.16 +0.00    +0.024 A  
DOCKED: ATOM      8  C   UNL     1      16.166  26.624  16.554 -0.23 +0.00    +0.005 A  
DOCKED: ATOM      9  C   UNL     1      17.400  27.054  16.070 -0.26 -0.01    -0.049 A  
DOCKED: ATOM     10  C   UNL     1      17.536  28.416  15.462 -0.24 +0.00    +0.044 C  
DOCKED: ATOM     11  C   UNL     1      18.500  26.198  16.175 -0.24 -0.00    +0.025 A  
DOCKED: ATOM     12  C   UNL     1      18.350  24.923  16.739 -0.25 -0.01    +0.062 A  
DOCKED: ATOM     13 CL   UNL     1      19.755  23.910  16.837 -0.31 +0.02    -0.082 Cl 
DOCKED: ENDBRANCH   4   6
DOCKED: ENDBRANCH   2   4
DOCKED: ENDBRANCH   1   2
DOCKED: BRANCH   1  14
DOCKED: ATOM     14  C   UNL     1      14.286  22.163  17.308 -0.37 -0.00    +0.010 C  
DOCKED: BRANCH  14  22
DOCKED: ATOM     15  C   UNL     1      12.177  23.590  17.137 -0.22 -0.00    -0.048 C  
DOCKED: ATOM     16  C   UNL     1      11.159  23.778  16.288 -0.32 -0.00    -0.020 C  
DOCKED: ATOM     17  C   UNL     1      10.428  22.705  15.534 -0.34 -0.00    +0.012 C  
DOCKED: ATOM     18  C   UNL     1       8.926  22.877  15.779 -0.39 -0.00    +0.012 C  
DOCKED: ATOM     19  C   UNL     1      10.960  21.256  15.717 -0.32 +0.00    -0.007 C  
DOCKED: ATOM     20  C   UNL     1       9.881  20.189  15.971 -0.41 -0.00    +0.008 C  
DOCKED: ATOM     21  C   UNL     1      12.096  21.029  16.731 -0.33 -0.00    +0.012 C  
DOCKED: ATOM     22  C   UNL     1      12.746  22.229  17.441 -0.28 -0.00    +0.019 C  
DOCKED: BRANCH  15  25
DOCKED: ATOM     23  C   UNL     1      13.134  27.079  18.500 -0.14 -0.00    +0.035 C  
DOCKED: ATOM     24  C   UNL     1      12.527  25.990  17.674 -0.19 -0.00    -0.030 C  
DOCKED: ATOM     25  C   UNL     1      12.712  24.688  17.931 -0.18 +0.00    -0.001 C  
DOCKED: ENDBRANCH  15  25
DOCKED: ENDBRANCH  14  22
DOCKED: ENDBRANCH   1  14
DOCKED: TORSDOF 6
DOCKED: TER
DOCKED: ENDMDL
________________________________________________________________________________


    FINAL DOCKED STATE:
    ________________________


Run:   39 / 50
Time taken for this run:   0.000s

DOCKED: MODEL        39
DOCKED: USER    Run = 39
DOCKED: USER
DOCKED: USER    Estimated Free Energy of Binding    =  -3.80 kcal/mol  [=(1)+(2)+(3)-(4)]
DOCKED: USER
DOCKED: USER    (1) Final Intermolecular Energy     =  -5.59 kcal/mol
DOCKED: USER        vdW + Hbond + desolv Energy     =  -5.57 kcal/mol
DOCKED: USER        Electrostatic Energy            =  -0.02 kcal/mol
DOCKED: USER        Moving Ligand-Fixed Receptor    =  -5.59 kcal/mol
DOCKED: USER        Moving Ligand-Moving Receptor   =  +0.00 kcal/mol
DOCKED: USER    (2) Final Total Internal Energy     =  -2.61 kcal/mol
DOCKED: USER    (3) Torsional Free Energy           =  +1.79 kcal/mol
DOCKED: USER    (4) Unbound System's Energy         =  -2.61 kcal/mol
DOCKED: USER
DOCKED: USER
DOCKED: REMARK  Name = 
DOCKED: REMARK  11 active torsions:
DOCKED: REMARK  status: ('A' for Active; 'I' for Inactive)
DOCKED: REMARK    1  A    between atoms: C_1  and  C_2
DOCKED: REMARK    2  A    between atoms: C_3  and  C_4
DOCKED: REMARK    3  A    between atoms: C_6  and  C_7
DOCKED: REMARK    4  A    between atoms: C_8  and  C_9
DOCKED: REMARK    5  A    between atoms: C_11  and  C_12
DOCKED: REMARK    6  A    between atoms: C_12  and  C_13
DOCKED: REMARK    7  A    between atoms: C_13  and  C_14
DOCKED: REMARK    8  A    between atoms: C_14  and  C_15
DOCKED: REMARK    9  A    between atoms: C_14  and  N_16
DOCKED: REMARK   10  A    between atoms: N_16  and  C_17
DOCKED: REMARK   11  A    between atoms: C_20  and  C_21
DOCKED: REMARK                            x       y       z     vdW  Elec       q    Type
DOCKED: REMARK                         _______ _______ _______ _____ _____    ______ ____
DOCKED: USER                              x       y       z     vdW  Elec       q    Type
DOCKED: USER                           _______ _______ _______ _____ _____    ______ ____
DOCKED: ROOT
DOCKED: ATOM      1  C   UNL     1       8.459  22.933  15.819 -0.35 -0.01    +0.022 C  
DOCKED: ENDROOT
DOCKED: BRANCH   1   2
DOCKED: ATOM      2  C   UNL     1       7.154  22.671  16.609 -0.25 -0.03    +0.067 C  
DOCKED: ATOM      3  C   UNL     1       5.934  22.721  15.679 -0.25 -0.01    +0.028 C  
DOCKED: BRANCH   2   4
DOCKED: ATOM      4  N   UNL     1       7.236  21.348  17.243 -0.04 +0.08    -0.340 N  
DOCKED: ATOM      5  H   UNL     1       6.892  20.586  16.656 +0.05 -0.03    +0.146 HD 
DOCKED: BRANCH   4   6
DOCKED: ATOM      6  C   UNL     1       8.422  20.951  17.894 -0.09 -0.01    +0.046 A  
DOCKED: ATOM      7  C   UNL     1       8.713  21.338  19.209 -0.04 -0.01    +0.024 A  
DOCKED: ATOM      8  C   UNL     1       9.854  20.886  19.874 -0.04 -0.00    +0.005 A  
DOCKED: ATOM      9  C   UNL     1      10.751  20.025  19.243 -0.10 +0.01    -0.049 A  
DOCKED: ATOM     10  C   UNL     1      11.984  19.566  19.958 -0.12 -0.01    +0.044 C  
DOCKED: ATOM     11  C   UNL     1      10.470  19.596  17.942 -0.18 -0.00    +0.025 A  
DOCKED: ATOM     12  C   UNL     1       9.315  20.045  17.286 -0.19 -0.01    +0.062 A  
DOCKED: ATOM     13 CL   UNL     1       9.027  19.475  15.672 -0.47 +0.01    -0.082 Cl 
DOCKED: ENDBRANCH   4   6
DOCKED: ENDBRANCH   2   4
DOCKED: ENDBRANCH   1   2
DOCKED: BRANCH   1  14
DOCKED: ATOM     14  C   UNL     1       9.358  23.960  16.527 -0.31 -0.00    +0.010 C  
DOCKED: BRANCH  14  22
DOCKED: ATOM     15  C   UNL     1      11.700  24.045  17.537 -0.19 +0.00    -0.048 C  
DOCKED: ATOM     16  C   UNL     1      12.635  23.193  17.977 -0.18 +0.00    -0.020 C  
DOCKED: ATOM     17  C   UNL     1      13.020  21.894  17.330 -0.32 -0.00    +0.012 C  
DOCKED: ATOM     18  C   UNL     1      14.541  21.877  17.144 -0.40 -0.00    +0.012 C  
DOCKED: ATOM     19  C   UNL     1      12.202  21.487  16.072 -0.44 +0.00    -0.007 C  
DOCKED: ATOM     20  C   UNL     1      13.038  20.987  14.881 -0.38 -0.00    +0.008 C  
DOCKED: ATOM     21  C   UNL     1      11.164  22.487  15.534 -0.34 +0.00    +0.012 C  
DOCKED: ATOM     22  C   UNL     1      10.880  23.790  16.301 -0.34 -0.00    +0.019 C  
DOCKED: BRANCH  15  25
DOCKED: ATOM     23  C   UNL     1      11.379  27.839  18.208 -0.18 -0.02    +0.035 C  
DOCKED: ATOM     24  C   UNL     1      11.535  26.524  17.514 -0.23 +0.00    -0.030 C  
DOCKED: ATOM     25  C   UNL     1      11.514  25.350  18.159 -0.19 +0.00    -0.001 C  
DOCKED: ENDBRANCH  15  25
DOCKED: ENDBRANCH  14  22
DOCKED: ENDBRANCH   1  14
DOCKED: TORSDOF 6
DOCKED: TER
DOCKED: ENDMDL
________________________________________________________________________________


    FINAL DOCKED STATE:
    ________________________


Run:   40 / 50
Time taken for this run:   0.000s

DOCKED: MODEL        40
DOCKED: USER    Run = 40
DOCKED: USER
DOCKED: USER    Estimated Free Energy of Binding    =  -3.86 kcal/mol  [=(1)+(2)+(3)-(4)]
DOCKED: USER
DOCKED: USER    (1) Final Intermolecular Energy     =  -5.65 kcal/mol
DOCKED: USER        vdW + Hbond + desolv Energy     =  -5.64 kcal/mol
DOCKED: USER        Electrostatic Energy            =  -0.00 kcal/mol
DOCKED: USER        Moving Ligand-Fixed Receptor    =  -5.65 kcal/mol
DOCKED: USER        Moving Ligand-Moving Receptor   =  +0.00 kcal/mol
DOCKED: USER    (2) Final Total Internal Energy     =  -2.30 kcal/mol
DOCKED: USER    (3) Torsional Free Energy           =  +1.79 kcal/mol
DOCKED: USER    (4) Unbound System's Energy         =  -2.30 kcal/mol
DOCKED: USER
DOCKED: USER
DOCKED: REMARK  Name = 
DOCKED: REMARK  11 active torsions:
DOCKED: REMARK  status: ('A' for Active; 'I' for Inactive)
DOCKED: REMARK    1  A    between atoms: C_1  and  C_2
DOCKED: REMARK    2  A    between atoms: C_3  and  C_4
DOCKED: REMARK    3  A    between atoms: C_6  and  C_7
DOCKED: REMARK    4  A    between atoms: C_8  and  C_9
DOCKED: REMARK    5  A    between atoms: C_11  and  C_12
DOCKED: REMARK    6  A    between atoms: C_12  and  C_13
DOCKED: REMARK    7  A    between atoms: C_13  and  C_14
DOCKED: REMARK    8  A    between atoms: C_14  and  C_15
DOCKED: REMARK    9  A    between atoms: C_14  and  N_16
DOCKED: REMARK   10  A    between atoms: N_16  and  C_17
DOCKED: REMARK   11  A    between atoms: C_20  and  C_21
DOCKED: REMARK                            x       y       z     vdW  Elec       q    Type
DOCKED: REMARK                         _______ _______ _______ _____ _____    ______ ____
DOCKED: USER                              x       y       z     vdW  Elec       q    Type
DOCKED: USER                           _______ _______ _______ _____ _____    ______ ____
DOCKED: ROOT
DOCKED: ATOM      1  C   UNL     1       8.052  21.909  16.777 -0.24 -0.01    +0.022 C  
DOCKED: ENDROOT
DOCKED: BRANCH   1   2
DOCKED: ATOM      2  C   UNL     1       9.108  22.978  17.147 -0.20 -0.02    +0.067 C  
DOCKED: ATOM      3  C   UNL     1       8.433  24.304  17.527 -0.21 -0.02    +0.028 C  
DOCKED: BRANCH   2   4
DOCKED: ATOM      4  N   UNL     1       9.907  22.491  18.280 -0.01 +0.08    -0.340 N  
DOCKED: ATOM      5  H   UNL     1       9.578  21.603  18.666 +0.03 -0.03    +0.146 HD 
DOCKED: BRANCH   4   6
DOCKED: ATOM      6  C   UNL     1      11.314  22.482  18.196 -0.10 -0.01    +0.046 A  
DOCKED: ATOM      7  C   UNL     1      12.024  23.483  17.521 -0.17 -0.00    +0.024 A  
DOCKED: ATOM      8  C   UNL     1      13.420  23.510  17.499 -0.18 +0.00    +0.005 A  
DOCKED: ATOM      9  C   UNL     1      14.160  22.529  18.158 -0.22 +0.01    -0.049 A  
DOCKED: ATOM     10  C   UNL     1      15.656  22.554  18.108 -0.24 -0.01    +0.044 C  
DOCKED: ATOM     11  C   UNL     1      13.479  21.536  18.869 -0.17 -0.00    +0.025 A  
DOCKED: ATOM     12  C   UNL     1      12.077  21.524  18.895 -0.11 -0.01    +0.062 A  
DOCKED: ATOM     13 CL   UNL     1      11.294  20.262  19.794 -0.13 +0.01    -0.082 Cl 
DOCKED: ENDBRANCH   4   6
DOCKED: ENDBRANCH   2   4
DOCKED: ENDBRANCH   1   2
DOCKED: BRANCH   1  14
DOCKED: ATOM     14  C   UNL     1       8.475  21.090  15.546 -0.33 -0.00    +0.010 C  
DOCKED: BRANCH  14  22
DOCKED: ATOM     15  C   UNL     1       9.907  19.120  16.307 -0.38 +0.01    -0.048 C  
DOCKED: ATOM     16  C   UNL     1      10.022  18.315  17.372 -0.24 +0.00    -0.020 C  
DOCKED: ATOM     17  C   UNL     1       8.888  17.726  18.161 -0.21 -0.00    +0.012 C  
DOCKED: ATOM     18  C   UNL     1       9.104  16.213  18.265 -0.21 -0.00    +0.012 C  
DOCKED: ATOM     19  C   UNL     1       7.458  18.154  17.727 -0.19 +0.00    -0.007 C  
DOCKED: ATOM     20  C   UNL     1       6.437  17.009  17.614 -0.23 -0.00    +0.008 C  
DOCKED: ATOM     21  C   UNL     1       7.319  19.037  16.474 -0.26 -0.00    +0.012 C  
DOCKED: ATOM     22  C   UNL     1       8.576  19.561  15.758 -0.35 -0.00    +0.019 C  
DOCKED: BRANCH  15  25
DOCKED: ATOM     23  C   UNL     1      12.976  20.984  14.876 -0.36 -0.00    +0.035 C  
DOCKED: ATOM     24  C   UNL     1      11.812  20.608  15.735 -0.43 +0.00    -0.030 C  
DOCKED: ATOM     25  C   UNL     1      11.072  19.510  15.526 -0.49 +0.00    -0.001 C  
DOCKED: ENDBRANCH  15  25
DOCKED: ENDBRANCH  14  22
DOCKED: ENDBRANCH   1  14
DOCKED: TORSDOF 6
DOCKED: TER
DOCKED: ENDMDL
________________________________________________________________________________


    FINAL DOCKED STATE:
    ________________________


Run:   41 / 50
Time taken for this run:   0.000s

DOCKED: MODEL        41
DOCKED: USER    Run = 41
DOCKED: USER
DOCKED: USER    Estimated Free Energy of Binding    =  -4.96 kcal/mol  [=(1)+(2)+(3)-(4)]
DOCKED: USER
DOCKED: USER    (1) Final Intermolecular Energy     =  -6.75 kcal/mol
DOCKED: USER        vdW + Hbond + desolv Energy     =  -6.73 kcal/mol
DOCKED: USER        Electrostatic Energy            =  -0.01 kcal/mol
DOCKED: USER        Moving Ligand-Fixed Receptor    =  -6.75 kcal/mol
DOCKED: USER        Moving Ligand-Moving Receptor   =  +0.00 kcal/mol
DOCKED: USER    (2) Final Total Internal Energy     =  -1.59 kcal/mol
DOCKED: USER    (3) Torsional Free Energy           =  +1.79 kcal/mol
DOCKED: USER    (4) Unbound System's Energy         =  -1.59 kcal/mol
DOCKED: USER
DOCKED: USER
DOCKED: REMARK  Name = 
DOCKED: REMARK  11 active torsions:
DOCKED: REMARK  status: ('A' for Active; 'I' for Inactive)
DOCKED: REMARK    1  A    between atoms: C_1  and  C_2
DOCKED: REMARK    2  A    between atoms: C_3  and  C_4
DOCKED: REMARK    3  A    between atoms: C_6  and  C_7
DOCKED: REMARK    4  A    between atoms: C_8  and  C_9
DOCKED: REMARK    5  A    between atoms: C_11  and  C_12
DOCKED: REMARK    6  A    between atoms: C_12  and  C_13
DOCKED: REMARK    7  A    between atoms: C_13  and  C_14
DOCKED: REMARK    8  A    between atoms: C_14  and  C_15
DOCKED: REMARK    9  A    between atoms: C_14  and  N_16
DOCKED: REMARK   10  A    between atoms: N_16  and  C_17
DOCKED: REMARK   11  A    between atoms: C_20  and  C_21
DOCKED: REMARK                            x       y       z     vdW  Elec       q    Type
DOCKED: REMARK                         _______ _______ _______ _____ _____    ______ ____
DOCKED: USER                              x       y       z     vdW  Elec       q    Type
DOCKED: USER                           _______ _______ _______ _____ _____    ______ ____
DOCKED: ROOT
DOCKED: ATOM      1  C   UNL     1      13.821  21.351  16.408 -0.27 -0.00    +0.022 C  
DOCKED: ENDROOT
DOCKED: BRANCH   1   2
DOCKED: ATOM      2  C   UNL     1      14.014  22.064  17.768 -0.31 -0.01    +0.067 C  
DOCKED: ATOM      3  C   UNL     1      13.903  21.066  18.929 -0.22 -0.00    +0.028 C  
DOCKED: BRANCH   2   4
DOCKED: ATOM      4  N   UNL     1      15.339  22.700  17.791 -0.17 +0.05    -0.340 N  
DOCKED: ATOM      5  H   UNL     1      16.041  22.214  17.229 -0.30 -0.06    +0.146 HD 
DOCKED: BRANCH   4   6
DOCKED: ATOM      6  C   UNL     1      15.455  24.091  17.599 -0.20 -0.00    +0.046 A  
DOCKED: ATOM      7  C   UNL     1      14.367  24.958  17.771 -0.10 +0.00    +0.024 A  
DOCKED: ATOM      8  C   UNL     1      14.502  26.342  17.649 -0.16 +0.00    +0.005 A  
DOCKED: ATOM      9  C   UNL     1      15.738  26.912  17.349 -0.17 -0.01    -0.049 A  
DOCKED: ATOM     10  C   UNL     1      15.866  28.397  17.198 -0.15 +0.00    +0.044 C  
DOCKED: ATOM     11  C   UNL     1      16.849  26.075  17.206 -0.20 +0.00    +0.025 A  
DOCKED: ATOM     12  C   UNL     1      16.707  24.687  17.342 -0.24 -0.00    +0.062 A  
DOCKED: ATOM     13 CL   UNL     1      18.125  23.705  17.150 -0.31 +0.01    -0.082 Cl 
DOCKED: ENDBRANCH   4   6
DOCKED: ENDBRANCH   2   4
DOCKED: ENDBRANCH   1   2
DOCKED: BRANCH   1  14
DOCKED: ATOM     14  C   UNL     1      12.621  21.919  15.631 -0.31 +0.00    +0.010 C  
DOCKED: BRANCH  14  22
DOCKED: ATOM     15  C   UNL     1      10.373  23.034  16.091 -0.35 +0.00    -0.048 C  
DOCKED: ATOM     16  C   UNL     1       9.097  22.920  15.699 -0.40 +0.00    -0.020 C  
DOCKED: ATOM     17  C   UNL     1       8.353  21.635  15.477 -0.35 -0.00    +0.012 C  
DOCKED: ATOM     18  C   UNL     1       7.043  21.690  16.269 -0.29 -0.00    +0.012 C  
DOCKED: ATOM     19  C   UNL     1       9.174  20.328  15.660 -0.38 +0.00    -0.007 C  
DOCKED: ATOM     20  C   UNL     1       8.483  19.230  16.486 -0.34 -0.00    +0.008 C  
DOCKED: ATOM     21  C   UNL     1      10.624  20.453  16.160 -0.39 -0.00    +0.012 C  
DOCKED: ATOM     22  C   UNL     1      11.255  21.843  16.354 -0.33 -0.00    +0.019 C  
DOCKED: BRANCH  15  25
DOCKED: ATOM     23  C   UNL     1      11.064  26.526  17.601 -0.23 -0.01    +0.035 C  
DOCKED: ATOM     24  C   UNL     1      10.455  25.187  17.328 -0.25 +0.01    -0.030 C  
DOCKED: ATOM     25  C   UNL     1      10.949  24.331  16.423 -0.32 +0.00    -0.001 C  
DOCKED: ENDBRANCH  15  25
DOCKED: ENDBRANCH  14  22
DOCKED: ENDBRANCH   1  14
DOCKED: TORSDOF 6
DOCKED: TER
DOCKED: ENDMDL
________________________________________________________________________________


    FINAL DOCKED STATE:
    ________________________


Run:   42 / 50
Time taken for this run:   0.000s

DOCKED: MODEL        42
DOCKED: USER    Run = 42
DOCKED: USER
DOCKED: USER    Estimated Free Energy of Binding    =  -4.90 kcal/mol  [=(1)+(2)+(3)-(4)]
DOCKED: USER
DOCKED: USER    (1) Final Intermolecular Energy     =  -6.69 kcal/mol
DOCKED: USER        vdW + Hbond + desolv Energy     =  -6.69 kcal/mol
DOCKED: USER        Electrostatic Energy            =  -0.01 kcal/mol
DOCKED: USER        Moving Ligand-Fixed Receptor    =  -6.69 kcal/mol
DOCKED: USER        Moving Ligand-Moving Receptor   =  +0.00 kcal/mol
DOCKED: USER    (2) Final Total Internal Energy     =  -1.66 kcal/mol
DOCKED: USER    (3) Torsional Free Energy           =  +1.79 kcal/mol
DOCKED: USER    (4) Unbound System's Energy         =  -1.66 kcal/mol
DOCKED: USER
DOCKED: USER
DOCKED: REMARK  Name = 
DOCKED: REMARK  11 active torsions:
DOCKED: REMARK  status: ('A' for Active; 'I' for Inactive)
DOCKED: REMARK    1  A    between atoms: C_1  and  C_2
DOCKED: REMARK    2  A    between atoms: C_3  and  C_4
DOCKED: REMARK    3  A    between atoms: C_6  and  C_7
DOCKED: REMARK    4  A    between atoms: C_8  and  C_9
DOCKED: REMARK    5  A    between atoms: C_11  and  C_12
DOCKED: REMARK    6  A    between atoms: C_12  and  C_13
DOCKED: REMARK    7  A    between atoms: C_13  and  C_14
DOCKED: REMARK    8  A    between atoms: C_14  and  C_15
DOCKED: REMARK    9  A    between atoms: C_14  and  N_16
DOCKED: REMARK   10  A    between atoms: N_16  and  C_17
DOCKED: REMARK   11  A    between atoms: C_20  and  C_21
DOCKED: REMARK                            x       y       z     vdW  Elec       q    Type
DOCKED: REMARK                         _______ _______ _______ _____ _____    ______ ____
DOCKED: USER                              x       y       z     vdW  Elec       q    Type
DOCKED: USER                           _______ _______ _______ _____ _____    ______ ____
DOCKED: ROOT
DOCKED: ATOM      1  C   UNL     1      13.805  21.381  16.539 -0.30 -0.00    +0.022 C  
DOCKED: ENDROOT
DOCKED: BRANCH   1   2
DOCKED: ATOM      2  C   UNL     1      14.025  21.860  17.993 -0.29 -0.01    +0.067 C  
DOCKED: ATOM      3  C   UNL     1      14.057  20.670  18.962 -0.20 -0.00    +0.028 C  
DOCKED: BRANCH   2   4
DOCKED: ATOM      4  N   UNL     1      15.297  22.592  18.070 -0.15 +0.05    -0.340 N  
DOCKED: ATOM      5  H   UNL     1      16.066  22.137  17.573 -0.34 -0.06    +0.146 HD 
DOCKED: BRANCH   4   6
DOCKED: ATOM      6  C   UNL     1      15.327  23.980  17.825 -0.20 -0.00    +0.046 A  
DOCKED: ATOM      7  C   UNL     1      14.266  24.820  18.187 -0.14 +0.00    +0.024 A  
DOCKED: ATOM      8  C   UNL     1      14.328  26.204  18.008 -0.15 +0.00    +0.005 A  
DOCKED: ATOM      9  C   UNL     1      15.462  26.799  17.456 -0.16 -0.01    -0.049 A  
DOCKED: ATOM     10  C   UNL     1      15.508  28.280  17.246 -0.14 +0.01    +0.044 C  
DOCKED: ATOM     11  C   UNL     1      16.550  25.989  17.116 -0.22 +0.00    +0.025 A  
DOCKED: ATOM     12  C   UNL     1      16.484  24.601  17.312 -0.24 -0.00    +0.062 A  
DOCKED: ATOM     13 CL   UNL     1      17.868  23.654  16.867 -0.28 +0.02    -0.082 Cl 
DOCKED: ENDBRANCH   4   6
DOCKED: ENDBRANCH   2   4
DOCKED: ENDBRANCH   1   2
DOCKED: BRANCH   1  14
DOCKED: ATOM     14  C   UNL     1      12.647  22.130  15.859 -0.28 +0.00    +0.010 C  
DOCKED: BRANCH  14  22
DOCKED: ATOM     15  C   UNL     1      10.265  23.017  16.084 -0.35 +0.01    -0.048 C  
DOCKED: ATOM     16  C   UNL     1       9.033  22.702  15.664 -0.40 +0.00    -0.020 C  
DOCKED: ATOM     17  C   UNL     1       8.453  21.319  15.586 -0.37 -0.00    +0.012 C  
DOCKED: ATOM     18  C   UNL     1       7.106  21.316  16.316 -0.28 -0.00    +0.012 C  
DOCKED: ATOM     19  C   UNL     1       9.407  20.154  15.971 -0.40 +0.00    -0.007 C  
DOCKED: ATOM     20  C   UNL     1       8.804  19.094  16.909 -0.30 -0.00    +0.008 C  
DOCKED: ATOM     21  C   UNL     1      10.806  20.515  16.503 -0.34 -0.00    +0.012 C  
DOCKED: ATOM     22  C   UNL     1      11.262  21.983  16.535 -0.31 -0.00    +0.019 C  
DOCKED: BRANCH  15  25
DOCKED: ATOM     23  C   UNL     1      11.113  26.488  17.559 -0.24 -0.01    +0.035 C  
DOCKED: ATOM     24  C   UNL     1      10.728  25.049  17.437 -0.25 +0.01    -0.030 C  
DOCKED: ATOM     25  C   UNL     1      10.671  24.404  16.263 -0.35 +0.00    -0.001 C  
DOCKED: ENDBRANCH  15  25
DOCKED: ENDBRANCH  14  22
DOCKED: ENDBRANCH   1  14
DOCKED: TORSDOF 6
DOCKED: TER
DOCKED: ENDMDL
________________________________________________________________________________


    FINAL DOCKED STATE:
    ________________________


Run:   43 / 50
Time taken for this run:   0.000s

DOCKED: MODEL        43
DOCKED: USER    Run = 43
DOCKED: USER
DOCKED: USER    Estimated Free Energy of Binding    =  -4.03 kcal/mol  [=(1)+(2)+(3)-(4)]
DOCKED: USER
DOCKED: USER    (1) Final Intermolecular Energy     =  -5.82 kcal/mol
DOCKED: USER        vdW + Hbond + desolv Energy     =  -5.83 kcal/mol
DOCKED: USER        Electrostatic Energy            =  +0.01 kcal/mol
DOCKED: USER        Moving Ligand-Fixed Receptor    =  -5.82 kcal/mol
DOCKED: USER        Moving Ligand-Moving Receptor   =  +0.00 kcal/mol
DOCKED: USER    (2) Final Total Internal Energy     =  -2.18 kcal/mol
DOCKED: USER    (3) Torsional Free Energy           =  +1.79 kcal/mol
DOCKED: USER    (4) Unbound System's Energy         =  -2.18 kcal/mol
DOCKED: USER
DOCKED: USER
DOCKED: REMARK  Name = 
DOCKED: REMARK  11 active torsions:
DOCKED: REMARK  status: ('A' for Active; 'I' for Inactive)
DOCKED: REMARK    1  A    between atoms: C_1  and  C_2
DOCKED: REMARK    2  A    between atoms: C_3  and  C_4
DOCKED: REMARK    3  A    between atoms: C_6  and  C_7
DOCKED: REMARK    4  A    between atoms: C_8  and  C_9
DOCKED: REMARK    5  A    between atoms: C_11  and  C_12
DOCKED: REMARK    6  A    between atoms: C_12  and  C_13
DOCKED: REMARK    7  A    between atoms: C_13  and  C_14
DOCKED: REMARK    8  A    between atoms: C_14  and  C_15
DOCKED: REMARK    9  A    between atoms: C_14  and  N_16
DOCKED: REMARK   10  A    between atoms: N_16  and  C_17
DOCKED: REMARK   11  A    between atoms: C_20  and  C_21
DOCKED: REMARK                            x       y       z     vdW  Elec       q    Type
DOCKED: REMARK                         _______ _______ _______ _____ _____    ______ ____
DOCKED: USER                              x       y       z     vdW  Elec       q    Type
DOCKED: USER                           _______ _______ _______ _____ _____    ______ ____
DOCKED: ROOT
DOCKED: ATOM      1  C   UNL     1       7.697  21.625  16.803 -0.24 -0.01    +0.022 C  
DOCKED: ENDROOT
DOCKED: BRANCH   1   2
DOCKED: ATOM      2  C   UNL     1       7.752  23.115  16.390 -0.29 -0.03    +0.067 C  
DOCKED: ATOM      3  C   UNL     1       6.342  23.720  16.336 -0.24 -0.02    +0.028 C  
DOCKED: BRANCH   2   4
DOCKED: ATOM      4  N   UNL     1       8.567  23.853  17.365 -0.10 +0.16    -0.340 N  
DOCKED: ATOM      5  H   UNL     1       8.094  24.023  18.255 +0.03 -0.08    +0.146 HD 
DOCKED: BRANCH   4   6
DOCKED: ATOM      6  C   UNL     1       9.902  23.467  17.602 -0.14 -0.01    +0.046 A  
DOCKED: ATOM      7  C   UNL     1      10.322  22.969  18.843 -0.06 -0.01    +0.024 A  
DOCKED: ATOM      8  C   UNL     1      11.628  22.522  19.053 -0.07 -0.00    +0.005 A  
DOCKED: ATOM      9  C   UNL     1      12.566  22.557  18.023 -0.16 +0.01    -0.049 A  
DOCKED: ATOM     10  C   UNL     1      13.970  22.097  18.267 -0.25 -0.01    +0.044 C  
DOCKED: ATOM     11  C   UNL     1      12.167  23.017  16.765 -0.24 +0.00    +0.025 A  
DOCKED: ATOM     12  C   UNL     1      10.850  23.453  16.558 -0.25 -0.00    +0.062 A  
DOCKED: ATOM     13 CL   UNL     1      10.421  24.013  14.973 -0.50 -0.00    -0.082 Cl 
DOCKED: ENDBRANCH   4   6
DOCKED: ENDBRANCH   2   4
DOCKED: ENDBRANCH   1   2
DOCKED: BRANCH   1  14
DOCKED: ATOM     14  C   UNL     1       8.093  20.696  15.644 -0.29 -0.00    +0.010 C  
DOCKED: BRANCH  14  22
DOCKED: ATOM     15  C   UNL     1       9.717  19.264  16.994 -0.30 +0.01    -0.048 C  
DOCKED: ATOM     16  C   UNL     1       9.725  18.558  18.132 -0.22 +0.00    -0.020 C  
DOCKED: ATOM     17  C   UNL     1       8.617  17.677  18.633 -0.17 -0.00    +0.012 C  
DOCKED: ATOM     18  C   UNL     1       9.204  16.301  18.965 -0.21 -0.00    +0.012 C  
DOCKED: ATOM     19  C   UNL     1       7.324  17.646  17.770 -0.20 +0.00    -0.007 C  
DOCKED: ATOM     20  C   UNL     1       6.747  16.245  17.506 -0.22 +0.00    +0.008 C  
DOCKED: ATOM     21  C   UNL     1       7.330  18.414  16.437 -0.25 -0.00    +0.012 C  
DOCKED: ATOM     22  C   UNL     1       8.547  19.272  16.047 -0.36 -0.00    +0.019 C  
DOCKED: BRANCH  15  25
DOCKED: ATOM     23  C   UNL     1      12.665  20.603  14.881 -0.31 -0.01    +0.035 C  
DOCKED: ATOM     24  C   UNL     1      11.415  19.893  15.293 -0.44 +0.00    -0.030 C  
DOCKED: ATOM     25  C   UNL     1      10.907  19.965  16.531 -0.35 +0.00    -0.001 C  
DOCKED: ENDBRANCH  15  25
DOCKED: ENDBRANCH  14  22
DOCKED: ENDBRANCH   1  14
DOCKED: TORSDOF 6
DOCKED: TER
DOCKED: ENDMDL
________________________________________________________________________________


    FINAL DOCKED STATE:
    ________________________


Run:   44 / 50
Time taken for this run:   0.000s

DOCKED: MODEL        44
DOCKED: USER    Run = 44
DOCKED: USER
DOCKED: USER    Estimated Free Energy of Binding    =  -5.05 kcal/mol  [=(1)+(2)+(3)-(4)]
DOCKED: USER
DOCKED: USER    (1) Final Intermolecular Energy     =  -6.84 kcal/mol
DOCKED: USER        vdW + Hbond + desolv Energy     =  -6.83 kcal/mol
DOCKED: USER        Electrostatic Energy            =  -0.01 kcal/mol
DOCKED: USER        Moving Ligand-Fixed Receptor    =  -6.84 kcal/mol
DOCKED: USER        Moving Ligand-Moving Receptor   =  +0.00 kcal/mol
DOCKED: USER    (2) Final Total Internal Energy     =  -1.61 kcal/mol
DOCKED: USER    (3) Torsional Free Energy           =  +1.79 kcal/mol
DOCKED: USER    (4) Unbound System's Energy         =  -1.61 kcal/mol
DOCKED: USER
DOCKED: USER
DOCKED: REMARK  Name = 
DOCKED: REMARK  11 active torsions:
DOCKED: REMARK  status: ('A' for Active; 'I' for Inactive)
DOCKED: REMARK    1  A    between atoms: C_1  and  C_2
DOCKED: REMARK    2  A    between atoms: C_3  and  C_4
DOCKED: REMARK    3  A    between atoms: C_6  and  C_7
DOCKED: REMARK    4  A    between atoms: C_8  and  C_9
DOCKED: REMARK    5  A    between atoms: C_11  and  C_12
DOCKED: REMARK    6  A    between atoms: C_12  and  C_13
DOCKED: REMARK    7  A    between atoms: C_13  and  C_14
DOCKED: REMARK    8  A    between atoms: C_14  and  C_15
DOCKED: REMARK    9  A    between atoms: C_14  and  N_16
DOCKED: REMARK   10  A    between atoms: N_16  and  C_17
DOCKED: REMARK   11  A    between atoms: C_20  and  C_21
DOCKED: REMARK                            x       y       z     vdW  Elec       q    Type
DOCKED: REMARK                         _______ _______ _______ _____ _____    ______ ____
DOCKED: USER                              x       y       z     vdW  Elec       q    Type
DOCKED: USER                           _______ _______ _______ _____ _____    ______ ____
DOCKED: ROOT
DOCKED: ATOM      1  C   UNL     1      13.806  21.367  16.410 -0.30 -0.00    +0.022 C  
DOCKED: ENDROOT
DOCKED: BRANCH   1   2
DOCKED: ATOM      2  C   UNL     1      13.998  21.984  17.815 -0.30 -0.01    +0.067 C  
DOCKED: ATOM      3  C   UNL     1      13.906  20.904  18.903 -0.21 -0.00    +0.028 C  
DOCKED: BRANCH   2   4
DOCKED: ATOM      4  N   UNL     1      15.314  22.634  17.877 -0.17 +0.05    -0.340 N  
DOCKED: ATOM      5  H   UNL     1      16.044  22.141  17.358 -0.35 -0.06    +0.146 HD 
DOCKED: BRANCH   4   6
DOCKED: ATOM      6  C   UNL     1      15.425  24.022  17.654 -0.20 -0.00    +0.046 A  
DOCKED: ATOM      7  C   UNL     1      14.346  24.894  17.853 -0.13 +0.00    +0.024 A  
DOCKED: ATOM      8  C   UNL     1      14.479  26.275  17.699 -0.16 +0.00    +0.005 A  
DOCKED: ATOM      9  C   UNL     1      15.703  26.836  17.339 -0.17 -0.01    -0.049 A  
DOCKED: ATOM     10  C   UNL     1      15.827  28.317  17.154 -0.16 +0.01    +0.044 C  
DOCKED: ATOM     11  C   UNL     1      16.805  25.994  17.168 -0.21 +0.00    +0.025 A  
DOCKED: ATOM     12  C   UNL     1      16.667  24.609  17.337 -0.24 -0.00    +0.062 A  
DOCKED: ATOM     13 CL   UNL     1      18.074  23.620  17.107 -0.29 +0.02    -0.082 Cl 
DOCKED: ENDBRANCH   4   6
DOCKED: ENDBRANCH   2   4
DOCKED: ENDBRANCH   1   2
DOCKED: BRANCH   1  14
DOCKED: ATOM     14  C   UNL     1      12.606  21.985  15.673 -0.30 +0.00    +0.010 C  
DOCKED: BRANCH  14  22
DOCKED: ATOM     15  C   UNL     1      10.284  22.980  16.036 -0.35 +0.01    -0.048 C  
DOCKED: ATOM     16  C   UNL     1       9.021  22.747  15.655 -0.40 +0.00    -0.020 C  
DOCKED: ATOM     17  C   UNL     1       8.367  21.400  15.542 -0.36 -0.00    +0.012 C  
DOCKED: ATOM     18  C   UNL     1       7.052  21.433  16.327 -0.28 -0.00    +0.012 C  
DOCKED: ATOM     19  C   UNL     1       9.274  20.172  15.836 -0.39 +0.00    -0.007 C  
DOCKED: ATOM     20  C   UNL     1       8.653  19.103  16.752 -0.32 -0.00    +0.008 C  
DOCKED: ATOM     21  C   UNL     1      10.709  20.437  16.324 -0.37 -0.00    +0.012 C  
DOCKED: ATOM     22  C   UNL     1      11.243  21.878  16.399 -0.33 -0.00    +0.019 C  
DOCKED: BRANCH  15  25
DOCKED: ATOM     23  C   UNL     1      11.148  26.423  17.569 -0.24 -0.01    +0.035 C  
DOCKED: ATOM     24  C   UNL     1      10.669  25.016  17.408 -0.25 +0.01    -0.030 C  
DOCKED: ATOM     25  C   UNL     1      10.769  24.336  16.257 -0.35 +0.00    -0.001 C  
DOCKED: ENDBRANCH  15  25
DOCKED: ENDBRANCH  14  22
DOCKED: ENDBRANCH   1  14
DOCKED: TORSDOF 6
DOCKED: TER
DOCKED: ENDMDL
________________________________________________________________________________


    FINAL DOCKED STATE:
    ________________________


Run:   45 / 50
Time taken for this run:   0.000s

DOCKED: MODEL        45
DOCKED: USER    Run = 45
DOCKED: USER
DOCKED: USER    Estimated Free Energy of Binding    =  -3.38 kcal/mol  [=(1)+(2)+(3)-(4)]
DOCKED: USER
DOCKED: USER    (1) Final Intermolecular Energy     =  -5.17 kcal/mol
DOCKED: USER        vdW + Hbond + desolv Energy     =  -5.15 kcal/mol
DOCKED: USER        Electrostatic Energy            =  -0.02 kcal/mol
DOCKED: USER        Moving Ligand-Fixed Receptor    =  -5.17 kcal/mol
DOCKED: USER        Moving Ligand-Moving Receptor   =  +0.00 kcal/mol
DOCKED: USER    (2) Final Total Internal Energy     =  -2.71 kcal/mol
DOCKED: USER    (3) Torsional Free Energy           =  +1.79 kcal/mol
DOCKED: USER    (4) Unbound System's Energy         =  -2.71 kcal/mol
DOCKED: USER
DOCKED: USER
DOCKED: REMARK  Name = 
DOCKED: REMARK  11 active torsions:
DOCKED: REMARK  status: ('A' for Active; 'I' for Inactive)
DOCKED: REMARK    1  A    between atoms: C_1  and  C_2
DOCKED: REMARK    2  A    between atoms: C_3  and  C_4
DOCKED: REMARK    3  A    between atoms: C_6  and  C_7
DOCKED: REMARK    4  A    between atoms: C_8  and  C_9
DOCKED: REMARK    5  A    between atoms: C_11  and  C_12
DOCKED: REMARK    6  A    between atoms: C_12  and  C_13
DOCKED: REMARK    7  A    between atoms: C_13  and  C_14
DOCKED: REMARK    8  A    between atoms: C_14  and  C_15
DOCKED: REMARK    9  A    between atoms: C_14  and  N_16
DOCKED: REMARK   10  A    between atoms: N_16  and  C_17
DOCKED: REMARK   11  A    between atoms: C_20  and  C_21
DOCKED: REMARK                            x       y       z     vdW  Elec       q    Type
DOCKED: REMARK                         _______ _______ _______ _____ _____    ______ ____
DOCKED: USER                              x       y       z     vdW  Elec       q    Type
DOCKED: USER                           _______ _______ _______ _____ _____    ______ ____
DOCKED: ROOT
DOCKED: ATOM      1  C   UNL     1       7.843  20.696  17.254 -0.18 -0.00    +0.022 C  
DOCKED: ENDROOT
DOCKED: BRANCH   1   2
DOCKED: ATOM      2  C   UNL     1       7.595  21.864  16.269 -0.29 -0.02    +0.067 C  
DOCKED: ATOM      3  C   UNL     1       7.562  23.207  17.011 -0.24 -0.01    +0.028 C  
DOCKED: BRANCH   2   4
DOCKED: ATOM      4  N   UNL     1       8.669  21.881  15.267 -0.18 +0.08    -0.340 N  
DOCKED: ATOM      5  H   UNL     1       8.486  22.500  14.475 -0.42 -0.06    +0.146 HD 
DOCKED: BRANCH   4   6
DOCKED: ATOM      6  C   UNL     1      10.012  22.017  15.677 -0.22 -0.00    +0.046 A  
DOCKED: ATOM      7  C   UNL     1      10.545  23.249  16.076 -0.32 -0.00    +0.024 A  
DOCKED: ATOM      8  C   UNL     1      11.854  23.367  16.548 -0.24 +0.00    +0.005 A  
DOCKED: ATOM      9  C   UNL     1      12.680  22.248  16.638 -0.29 +0.00    -0.049 A  
DOCKED: ATOM     10  C   UNL     1      14.090  22.391  17.123 -0.33 -0.00    +0.044 C  
DOCKED: ATOM     11  C   UNL     1      12.165  21.000  16.278 -0.33 -0.00    +0.025 A  
DOCKED: ATOM     12  C   UNL     1      10.845  20.888  15.817 -0.27 -0.01    +0.062 A  
DOCKED: ATOM     13 CL   UNL     1      10.268  19.310  15.385 -0.55 +0.01    -0.082 Cl 
DOCKED: ENDBRANCH   4   6
DOCKED: ENDBRANCH   2   4
DOCKED: ENDBRANCH   1   2
DOCKED: BRANCH   1  14
DOCKED: ATOM     14  C   UNL     1       7.770  21.159  18.718 -0.06 -0.00    +0.010 C  
DOCKED: BRANCH  14  22
DOCKED: ATOM     15  C   UNL     1       9.500  19.344  19.194 -0.10 +0.01    -0.048 C  
DOCKED: ATOM     16  C   UNL     1      10.819  19.155  19.060 -0.14 +0.00    -0.020 C  
DOCKED: ATOM     17  C   UNL     1      11.889  20.172  19.335 -0.14 -0.00    +0.012 C  
DOCKED: ATOM     18  C   UNL     1      12.922  19.545  20.278 -0.14 -0.00    +0.012 C  
DOCKED: ATOM     19  C   UNL     1      11.398  21.587  19.750 -0.07 +0.00    -0.007 C  
DOCKED: ATOM     20  C   UNL     1      12.127  22.206  20.954 -0.03 -0.00    +0.008 C  
DOCKED: ATOM     21  C   UNL     1       9.887  21.793  19.955 -0.03 -0.00    +0.012 C  
DOCKED: ATOM     22  C   UNL     1       8.904  20.652  19.641 -0.04 -0.00    +0.019 C  
DOCKED: BRANCH  15  25
DOCKED: ATOM     23  C   UNL     1       7.799  16.000  18.259 -0.21 +0.00    +0.035 C  
DOCKED: ATOM     24  C   UNL     1       8.816  17.085  18.418 -0.20 +0.00    -0.030 C  
DOCKED: ATOM     25  C   UNL     1       8.559  18.241  19.045 -0.12 +0.00    -0.001 C  
DOCKED: ENDBRANCH  15  25
DOCKED: ENDBRANCH  14  22
DOCKED: ENDBRANCH   1  14
DOCKED: TORSDOF 6
DOCKED: TER
DOCKED: ENDMDL
________________________________________________________________________________


    FINAL DOCKED STATE:
    ________________________


Run:   46 / 50
Time taken for this run:   0.000s

DOCKED: MODEL        46
DOCKED: USER    Run = 46
DOCKED: USER
DOCKED: USER    Estimated Free Energy of Binding    =  -4.98 kcal/mol  [=(1)+(2)+(3)-(4)]
DOCKED: USER
DOCKED: USER    (1) Final Intermolecular Energy     =  -6.77 kcal/mol
DOCKED: USER        vdW + Hbond + desolv Energy     =  -6.78 kcal/mol
DOCKED: USER        Electrostatic Energy            =  +0.01 kcal/mol
DOCKED: USER        Moving Ligand-Fixed Receptor    =  -6.77 kcal/mol
DOCKED: USER        Moving Ligand-Moving Receptor   =  +0.00 kcal/mol
DOCKED: USER    (2) Final Total Internal Energy     =  -1.60 kcal/mol
DOCKED: USER    (3) Torsional Free Energy           =  +1.79 kcal/mol
DOCKED: USER    (4) Unbound System's Energy         =  -1.60 kcal/mol
DOCKED: USER
DOCKED: USER
DOCKED: REMARK  Name = 
DOCKED: REMARK  11 active torsions:
DOCKED: REMARK  status: ('A' for Active; 'I' for Inactive)
DOCKED: REMARK    1  A    between atoms: C_1  and  C_2
DOCKED: REMARK    2  A    between atoms: C_3  and  C_4
DOCKED: REMARK    3  A    between atoms: C_6  and  C_7
DOCKED: REMARK    4  A    between atoms: C_8  and  C_9
DOCKED: REMARK    5  A    between atoms: C_11  and  C_12
DOCKED: REMARK    6  A    between atoms: C_12  and  C_13
DOCKED: REMARK    7  A    between atoms: C_13  and  C_14
DOCKED: REMARK    8  A    between atoms: C_14  and  C_15
DOCKED: REMARK    9  A    between atoms: C_14  and  N_16
DOCKED: REMARK   10  A    between atoms: N_16  and  C_17
DOCKED: REMARK   11  A    between atoms: C_20  and  C_21
DOCKED: REMARK                            x       y       z     vdW  Elec       q    Type
DOCKED: REMARK                         _______ _______ _______ _____ _____    ______ ____
DOCKED: USER                              x       y       z     vdW  Elec       q    Type
DOCKED: USER                           _______ _______ _______ _____ _____    ______ ____
DOCKED: ROOT
DOCKED: ATOM      1  C   UNL     1      13.790  21.377  16.347 -0.30 -0.00    +0.022 C  
DOCKED: ENDROOT
DOCKED: BRANCH   1   2
DOCKED: ATOM      2  C   UNL     1      13.650  21.861  17.809 -0.29 -0.01    +0.067 C  
DOCKED: ATOM      3  C   UNL     1      13.063  20.755  18.697 -0.16 -0.00    +0.028 C  
DOCKED: BRANCH   2   4
DOCKED: ATOM      4  N   UNL     1      14.975  22.246  18.315 -0.14 +0.05    -0.340 N  
DOCKED: ATOM      5  H   UNL     1      15.672  21.501  18.259 -0.20 -0.03    +0.146 HD 
DOCKED: BRANCH   4   6
DOCKED: ATOM      6  C   UNL     1      15.553  23.469  17.917 -0.24 -0.00    +0.046 A  
DOCKED: ATOM      7  C   UNL     1      16.700  23.522  17.115 -0.25 -0.00    +0.024 A  
DOCKED: ATOM      8  C   UNL     1      17.229  24.733  16.664 -0.29 -0.00    +0.005 A  
DOCKED: ATOM      9  C   UNL     1      16.623  25.942  17.003 -0.23 -0.00    -0.049 A  
DOCKED: ATOM     10  C   UNL     1      17.213  27.236  16.533 -0.24 +0.00    +0.044 C  
DOCKED: ATOM     11  C   UNL     1      15.457  25.919  17.774 -0.16 +0.00    +0.025 A  
DOCKED: ATOM     12  C   UNL     1      14.926  24.697  18.212 -0.13 -0.00    +0.062 A  
DOCKED: ATOM     13 CL   UNL     1      13.478  24.739  19.167 -0.10 +0.01    -0.082 Cl 
DOCKED: ENDBRANCH   4   6
DOCKED: ENDBRANCH   2   4
DOCKED: ENDBRANCH   1   2
DOCKED: BRANCH   1  14
DOCKED: ATOM     14  C   UNL     1      12.532  21.687  15.519 -0.40 +0.00    +0.010 C  
DOCKED: BRANCH  14  22
DOCKED: ATOM     15  C   UNL     1      10.342  22.878  16.066 -0.34 +0.00    -0.048 C  
DOCKED: ATOM     16  C   UNL     1       9.049  22.807  15.724 -0.40 +0.00    -0.020 C  
DOCKED: ATOM     17  C   UNL     1       8.254  21.548  15.531 -0.36 -0.00    +0.012 C  
DOCKED: ATOM     18  C   UNL     1       6.978  21.646  16.374 -0.28 -0.00    +0.012 C  
DOCKED: ATOM     19  C   UNL     1       9.037  20.214  15.683 -0.38 +0.00    -0.007 C  
DOCKED: ATOM     20  C   UNL     1       8.342  19.139  16.536 -0.33 -0.00    +0.008 C  
DOCKED: ATOM     21  C   UNL     1      10.509  20.290  16.126 -0.40 -0.00    +0.012 C  
DOCKED: ATOM     22  C   UNL     1      11.193  21.657  16.295 -0.34 -0.00    +0.019 C  
DOCKED: BRANCH  15  25
DOCKED: ATOM     23  C   UNL     1      11.146  26.396  17.451 -0.23 -0.01    +0.035 C  
DOCKED: ATOM     24  C   UNL     1      10.475  25.084  17.201 -0.26 +0.01    -0.030 C  
DOCKED: ATOM     25  C   UNL     1      10.973  24.154  16.374 -0.33 +0.00    -0.001 C  
DOCKED: ENDBRANCH  15  25
DOCKED: ENDBRANCH  14  22
DOCKED: ENDBRANCH   1  14
DOCKED: TORSDOF 6
DOCKED: TER
DOCKED: ENDMDL
________________________________________________________________________________


    FINAL DOCKED STATE:
    ________________________


Run:   47 / 50
Time taken for this run:   0.000s

DOCKED: MODEL        47
DOCKED: USER    Run = 47
DOCKED: USER
DOCKED: USER    Estimated Free Energy of Binding    =  -3.87 kcal/mol  [=(1)+(2)+(3)-(4)]
DOCKED: USER
DOCKED: USER    (1) Final Intermolecular Energy     =  -5.66 kcal/mol
DOCKED: USER        vdW + Hbond + desolv Energy     =  -5.66 kcal/mol
DOCKED: USER        Electrostatic Energy            =  -0.01 kcal/mol
DOCKED: USER        Moving Ligand-Fixed Receptor    =  -5.66 kcal/mol
DOCKED: USER        Moving Ligand-Moving Receptor   =  +0.00 kcal/mol
DOCKED: USER    (2) Final Total Internal Energy     =  -2.64 kcal/mol
DOCKED: USER    (3) Torsional Free Energy           =  +1.79 kcal/mol
DOCKED: USER    (4) Unbound System's Energy         =  -2.64 kcal/mol
DOCKED: USER
DOCKED: USER
DOCKED: REMARK  Name = 
DOCKED: REMARK  11 active torsions:
DOCKED: REMARK  status: ('A' for Active; 'I' for Inactive)
DOCKED: REMARK    1  A    between atoms: C_1  and  C_2
DOCKED: REMARK    2  A    between atoms: C_3  and  C_4
DOCKED: REMARK    3  A    between atoms: C_6  and  C_7
DOCKED: REMARK    4  A    between atoms: C_8  and  C_9
DOCKED: REMARK    5  A    between atoms: C_11  and  C_12
DOCKED: REMARK    6  A    between atoms: C_12  and  C_13
DOCKED: REMARK    7  A    between atoms: C_13  and  C_14
DOCKED: REMARK    8  A    between atoms: C_14  and  C_15
DOCKED: REMARK    9  A    between atoms: C_14  and  N_16
DOCKED: REMARK   10  A    between atoms: N_16  and  C_17
DOCKED: REMARK   11  A    between atoms: C_20  and  C_21
DOCKED: REMARK                            x       y       z     vdW  Elec       q    Type
DOCKED: REMARK                         _______ _______ _______ _____ _____    ______ ____
DOCKED: USER                              x       y       z     vdW  Elec       q    Type
DOCKED: USER                           _______ _______ _______ _____ _____    ______ ____
DOCKED: ROOT
DOCKED: ATOM      1  C   UNL     1       9.566  20.297  15.608 -0.34 -0.00    +0.022 C  
DOCKED: ENDROOT
DOCKED: BRANCH   1   2
DOCKED: ATOM      2  C   UNL     1      11.054  19.889  15.731 -0.43 -0.01    +0.067 C  
DOCKED: ATOM      3  C   UNL     1      11.350  18.642  14.886 -0.36 -0.01    +0.028 C  
DOCKED: BRANCH   2   4
DOCKED: ATOM      4  N   UNL     1      11.895  21.004  15.274 -0.22 +0.02    -0.340 N  
DOCKED: ATOM      5  H   UNL     1      12.011  21.046  14.259 +0.05 -0.00    +0.146 HD 
DOCKED: BRANCH   4   6
DOCKED: ATOM      6  C   UNL     1      11.682  22.301  15.783 -0.32 +0.00    +0.046 A  
DOCKED: ATOM      7  C   UNL     1      10.678  23.140  15.282 -0.33 +0.00    +0.024 A  
DOCKED: ATOM      8  C   UNL     1      10.424  24.396  15.836 -0.33 -0.00    +0.005 A  
DOCKED: ATOM      9  C   UNL     1      11.171  24.861  16.917 -0.23 +0.00    -0.049 A  
DOCKED: ATOM     10  C   UNL     1      10.905  26.220  17.487 -0.23 -0.01    +0.044 C  
DOCKED: ATOM     11  C   UNL     1      12.157  24.032  17.460 -0.18 -0.00    +0.025 A  
DOCKED: ATOM     12  C   UNL     1      12.397  22.766  16.906 -0.23 -0.00    +0.062 A  
DOCKED: ATOM     13 CL   UNL     1      13.637  21.789  17.626 -0.42 +0.01    -0.082 Cl 
DOCKED: ENDBRANCH   4   6
DOCKED: ENDBRANCH   2   4
DOCKED: ENDBRANCH   1   2
DOCKED: BRANCH   1  14
DOCKED: ATOM     14  C   UNL     1       8.743  19.823  16.817 -0.29 -0.00    +0.010 C  
DOCKED: BRANCH  14  22
DOCKED: ATOM     15  C   UNL     1       8.353  21.932  18.201 -0.09 +0.01    -0.048 C  
DOCKED: ATOM     16  C   UNL     1       8.103  23.232  17.999 -0.14 +0.01    -0.020 C  
DOCKED: ATOM     17  C   UNL     1       7.175  23.803  16.966 -0.24 -0.01    +0.012 C  
DOCKED: ATOM     18  C   UNL     1       6.208  24.767  17.663 -0.15 -0.01    +0.012 C  
DOCKED: ATOM     19  C   UNL     1       6.502  22.779  16.009 -0.31 +0.00    -0.007 C  
DOCKED: ATOM     20  C   UNL     1       4.993  22.980  15.791 -0.30 -0.00    +0.008 C  
DOCKED: ATOM     21  C   UNL     1       6.747  21.282  16.270 -0.27 -0.00    +0.012 C  
DOCKED: ATOM     22  C   UNL     1       7.721  20.842  17.376 -0.16 -0.00    +0.019 C  
DOCKED: BRANCH  15  25
DOCKED: ATOM     23  C   UNL     1      11.256  21.165  20.636 -0.04 -0.01    +0.035 C  
DOCKED: ATOM     24  C   UNL     1      10.473  21.683  19.473 -0.06 +0.01    -0.030 C  
DOCKED: ATOM     25  C   UNL     1       9.155  21.483  19.331 -0.05 +0.00    -0.001 C  
DOCKED: ENDBRANCH  15  25
DOCKED: ENDBRANCH  14  22
DOCKED: ENDBRANCH   1  14
DOCKED: TORSDOF 6
DOCKED: TER
DOCKED: ENDMDL
________________________________________________________________________________


    FINAL DOCKED STATE:
    ________________________


Run:   48 / 50
Time taken for this run:   0.000s

DOCKED: MODEL        48
DOCKED: USER    Run = 48
DOCKED: USER
DOCKED: USER    Estimated Free Energy of Binding    =  -3.50 kcal/mol  [=(1)+(2)+(3)-(4)]
DOCKED: USER
DOCKED: USER    (1) Final Intermolecular Energy     =  -5.29 kcal/mol
DOCKED: USER        vdW + Hbond + desolv Energy     =  -5.29 kcal/mol
DOCKED: USER        Electrostatic Energy            =  +0.00 kcal/mol
DOCKED: USER        Moving Ligand-Fixed Receptor    =  -5.29 kcal/mol
DOCKED: USER        Moving Ligand-Moving Receptor   =  +0.00 kcal/mol
DOCKED: USER    (2) Final Total Internal Energy     =  -2.73 kcal/mol
DOCKED: USER    (3) Torsional Free Energy           =  +1.79 kcal/mol
DOCKED: USER    (4) Unbound System's Energy         =  -2.73 kcal/mol
DOCKED: USER
DOCKED: USER
DOCKED: REMARK  Name = 
DOCKED: REMARK  11 active torsions:
DOCKED: REMARK  status: ('A' for Active; 'I' for Inactive)
DOCKED: REMARK    1  A    between atoms: C_1  and  C_2
DOCKED: REMARK    2  A    between atoms: C_3  and  C_4
DOCKED: REMARK    3  A    between atoms: C_6  and  C_7
DOCKED: REMARK    4  A    between atoms: C_8  and  C_9
DOCKED: REMARK    5  A    between atoms: C_11  and  C_12
DOCKED: REMARK    6  A    between atoms: C_12  and  C_13
DOCKED: REMARK    7  A    between atoms: C_13  and  C_14
DOCKED: REMARK    8  A    between atoms: C_14  and  C_15
DOCKED: REMARK    9  A    between atoms: C_14  and  N_16
DOCKED: REMARK   10  A    between atoms: N_16  and  C_17
DOCKED: REMARK   11  A    between atoms: C_20  and  C_21
DOCKED: REMARK                            x       y       z     vdW  Elec       q    Type
DOCKED: REMARK                         _______ _______ _______ _____ _____    ______ ____
DOCKED: USER                              x       y       z     vdW  Elec       q    Type
DOCKED: USER                           _______ _______ _______ _____ _____    ______ ____
DOCKED: ROOT
DOCKED: ATOM      1  C   UNL     1       7.303  21.630  16.628 -0.25 -0.01    +0.022 C  
DOCKED: ENDROOT
DOCKED: BRANCH   1   2
DOCKED: ATOM      2  C   UNL     1       7.592  23.148  16.708 -0.25 -0.03    +0.067 C  
DOCKED: ATOM      3  C   UNL     1       6.306  23.960  16.501 -0.22 -0.02    +0.028 C  
DOCKED: BRANCH   2   4
DOCKED: ATOM      4  N   UNL     1       8.163  23.458  18.026 -0.05 +0.15    -0.340 N  
DOCKED: ATOM      5  H   UNL     1       7.464  23.688  18.736 +0.02 -0.07    +0.146 HD 
DOCKED: BRANCH   4   6
DOCKED: ATOM      6  C   UNL     1       9.148  22.617  18.582 -0.06 -0.01    +0.046 A  
DOCKED: ATOM      7  C   UNL     1       8.827  21.590  19.480 -0.03 -0.01    +0.024 A  
DOCKED: ATOM      8  C   UNL     1       9.796  20.715  19.975 -0.04 -0.00    +0.005 A  
DOCKED: ATOM      9  C   UNL     1      11.128  20.836  19.585 -0.07 +0.01    -0.049 A  
DOCKED: ATOM     10  C   UNL     1      12.162  19.905  20.140 -0.12 -0.01    +0.044 C  
DOCKED: ATOM     11  C   UNL     1      11.473  21.829  18.663 -0.10 -0.00    +0.025 A  
DOCKED: ATOM     12  C   UNL     1      10.492  22.697  18.162 -0.08 -0.01    +0.062 A  
DOCKED: ATOM     13 CL   UNL     1      10.987  23.909  17.024 -0.33 +0.01    -0.082 Cl 
DOCKED: ENDBRANCH   4   6
DOCKED: ENDBRANCH   2   4
DOCKED: ENDBRANCH   1   2
DOCKED: BRANCH   1  14
DOCKED: ATOM     14  C   UNL     1       8.252  20.919  15.648 -0.35 -0.00    +0.010 C  
DOCKED: BRANCH  14  22
DOCKED: ATOM     15  C   UNL     1       9.829  19.059  16.402 -0.36 +0.01    -0.048 C  
DOCKED: ATOM     16  C   UNL     1      10.029  18.289  17.478 -0.24 +0.00    -0.020 C  
DOCKED: ATOM     17  C   UNL     1       8.962  17.650  18.319 -0.21 -0.00    +0.012 C  
DOCKED: ATOM     18  C   UNL     1       9.276  16.156  18.448 -0.23 -0.00    +0.012 C  
DOCKED: ATOM     19  C   UNL     1       7.494  17.978  17.926 -0.18 +0.00    -0.007 C  
DOCKED: ATOM     20  C   UNL     1       6.544  16.769  17.873 -0.21 -0.00    +0.008 C  
DOCKED: ATOM     21  C   UNL     1       7.259  18.820  16.660 -0.28 -0.00    +0.012 C  
DOCKED: ATOM     22  C   UNL     1       8.456  19.404  15.890 -0.34 -0.00    +0.019 C  
DOCKED: BRANCH  15  25
DOCKED: ATOM     23  C   UNL     1      12.812  21.010  14.905 -0.40 -0.00    +0.035 C  
DOCKED: ATOM     24  C   UNL     1      11.707  20.575  15.813 -0.41 +0.00    -0.030 C  
DOCKED: ATOM     25  C   UNL     1      10.941  19.503  15.571 -0.50 +0.00    -0.001 C  
DOCKED: ENDBRANCH  15  25
DOCKED: ENDBRANCH  14  22
DOCKED: ENDBRANCH   1  14
DOCKED: TORSDOF 6
DOCKED: TER
DOCKED: ENDMDL
________________________________________________________________________________


    FINAL DOCKED STATE:
    ________________________


Run:   49 / 50
Time taken for this run:   0.000s

DOCKED: MODEL        49
DOCKED: USER    Run = 49
DOCKED: USER
DOCKED: USER    Estimated Free Energy of Binding    =  -5.03 kcal/mol  [=(1)+(2)+(3)-(4)]
DOCKED: USER
DOCKED: USER    (1) Final Intermolecular Energy     =  -6.82 kcal/mol
DOCKED: USER        vdW + Hbond + desolv Energy     =  -6.81 kcal/mol
DOCKED: USER        Electrostatic Energy            =  -0.01 kcal/mol
DOCKED: USER        Moving Ligand-Fixed Receptor    =  -6.82 kcal/mol
DOCKED: USER        Moving Ligand-Moving Receptor   =  +0.00 kcal/mol
DOCKED: USER    (2) Final Total Internal Energy     =  -1.62 kcal/mol
DOCKED: USER    (3) Torsional Free Energy           =  +1.79 kcal/mol
DOCKED: USER    (4) Unbound System's Energy         =  -1.62 kcal/mol
DOCKED: USER
DOCKED: USER
DOCKED: REMARK  Name = 
DOCKED: REMARK  11 active torsions:
DOCKED: REMARK  status: ('A' for Active; 'I' for Inactive)
DOCKED: REMARK    1  A    between atoms: C_1  and  C_2
DOCKED: REMARK    2  A    between atoms: C_3  and  C_4
DOCKED: REMARK    3  A    between atoms: C_6  and  C_7
DOCKED: REMARK    4  A    between atoms: C_8  and  C_9
DOCKED: REMARK    5  A    between atoms: C_11  and  C_12
DOCKED: REMARK    6  A    between atoms: C_12  and  C_13
DOCKED: REMARK    7  A    between atoms: C_13  and  C_14
DOCKED: REMARK    8  A    between atoms: C_14  and  C_15
DOCKED: REMARK    9  A    between atoms: C_14  and  N_16
DOCKED: REMARK   10  A    between atoms: N_16  and  C_17
DOCKED: REMARK   11  A    between atoms: C_20  and  C_21
DOCKED: REMARK                            x       y       z     vdW  Elec       q    Type
DOCKED: REMARK                         _______ _______ _______ _____ _____    ______ ____
DOCKED: USER                              x       y       z     vdW  Elec       q    Type
DOCKED: USER                           _______ _______ _______ _____ _____    ______ ____
DOCKED: ROOT
DOCKED: ATOM      1  C   UNL     1      13.923  21.351  16.364 -0.24 -0.00    +0.022 C  
DOCKED: ENDROOT
DOCKED: BRANCH   1   2
DOCKED: ATOM      2  C   UNL     1      13.942  22.024  17.757 -0.31 -0.01    +0.067 C  
DOCKED: ATOM      3  C   UNL     1      13.725  20.987  18.868 -0.22 -0.00    +0.028 C  
DOCKED: BRANCH   2   4
DOCKED: ATOM      4  N   UNL     1      15.239  22.688  17.950 -0.16 +0.05    -0.340 N  
DOCKED: ATOM      5  H   UNL     1      16.026  22.187  17.533 -0.30 -0.05    +0.146 HD 
DOCKED: BRANCH   4   6
DOCKED: ATOM      6  C   UNL     1      15.367  24.069  17.699 -0.19 -0.00    +0.046 A  
DOCKED: ATOM      7  C   UNL     1      14.307  24.962  17.904 -0.15 +0.00    +0.024 A  
DOCKED: ATOM      8  C   UNL     1      14.457  26.338  17.723 -0.16 +0.00    +0.005 A  
DOCKED: ATOM      9  C   UNL     1      15.682  26.873  17.328 -0.17 -0.01    -0.049 A  
DOCKED: ATOM     10  C   UNL     1      15.825  28.348  17.114 -0.16 +0.01    +0.044 C  
DOCKED: ATOM     11  C   UNL     1      16.767  26.010  17.149 -0.21 +0.00    +0.025 A  
DOCKED: ATOM     12  C   UNL     1      16.611  24.631  17.346 -0.24 -0.00    +0.062 A  
DOCKED: ATOM     13 CL   UNL     1      17.998  23.616  17.105 -0.30 +0.02    -0.082 Cl 
DOCKED: ENDBRANCH   4   6
DOCKED: ENDBRANCH   2   4
DOCKED: ENDBRANCH   1   2
DOCKED: BRANCH   1  14
DOCKED: ATOM     14  C   UNL     1      12.666  21.732  15.563 -0.37 +0.00    +0.010 C  
DOCKED: BRANCH  14  22
DOCKED: ATOM     15  C   UNL     1      10.434  22.845  16.101 -0.34 +0.00    -0.048 C  
DOCKED: ATOM     16  C   UNL     1       9.145  22.726  15.756 -0.39 +0.00    -0.020 C  
DOCKED: ATOM     17  C   UNL     1       8.396  21.439  15.567 -0.37 -0.00    +0.012 C  
DOCKED: ATOM     18  C   UNL     1       7.116  21.494  16.407 -0.28 -0.00    +0.012 C  
DOCKED: ATOM     19  C   UNL     1       9.226  20.134  15.725 -0.39 +0.00    -0.007 C  
DOCKED: ATOM     20  C   UNL     1       8.568  19.038  16.581 -0.31 -0.00    +0.008 C  
DOCKED: ATOM     21  C   UNL     1      10.694  20.265  16.171 -0.40 -0.00    +0.012 C  
DOCKED: ATOM     22  C   UNL     1      11.328  21.657  16.336 -0.34 -0.00    +0.019 C  
DOCKED: BRANCH  15  25
DOCKED: ATOM     23  C   UNL     1      11.153  26.358  17.544 -0.25 -0.01    +0.035 C  
DOCKED: ATOM     24  C   UNL     1      10.536  25.019  17.299 -0.26 +0.01    -0.030 C  
DOCKED: ATOM     25  C   UNL     1      11.018  24.144  16.405 -0.32 -0.00    -0.001 C  
DOCKED: ENDBRANCH  15  25
DOCKED: ENDBRANCH  14  22
DOCKED: ENDBRANCH   1  14
DOCKED: TORSDOF 6
DOCKED: TER
DOCKED: ENDMDL
________________________________________________________________________________


    FINAL DOCKED STATE:
    ________________________


Run:   50 / 50
Time taken for this run:   0.000s

DOCKED: MODEL        50
DOCKED: USER    Run = 50
DOCKED: USER
DOCKED: USER    Estimated Free Energy of Binding    =  -3.73 kcal/mol  [=(1)+(2)+(3)-(4)]
DOCKED: USER
DOCKED: USER    (1) Final Intermolecular Energy     =  -5.52 kcal/mol
DOCKED: USER        vdW + Hbond + desolv Energy     =  -5.49 kcal/mol
DOCKED: USER        Electrostatic Energy            =  -0.03 kcal/mol
DOCKED: USER        Moving Ligand-Fixed Receptor    =  -5.52 kcal/mol
DOCKED: USER        Moving Ligand-Moving Receptor   =  +0.00 kcal/mol
DOCKED: USER    (2) Final Total Internal Energy     =  -2.40 kcal/mol
DOCKED: USER    (3) Torsional Free Energy           =  +1.79 kcal/mol
DOCKED: USER    (4) Unbound System's Energy         =  -2.40 kcal/mol
DOCKED: USER
DOCKED: USER
DOCKED: REMARK  Name = 
DOCKED: REMARK  11 active torsions:
DOCKED: REMARK  status: ('A' for Active; 'I' for Inactive)
DOCKED: REMARK    1  A    between atoms: C_1  and  C_2
DOCKED: REMARK    2  A    between atoms: C_3  and  C_4
DOCKED: REMARK    3  A    between atoms: C_6  and  C_7
DOCKED: REMARK    4  A    between atoms: C_8  and  C_9
DOCKED: REMARK    5  A    between atoms: C_11  and  C_12
DOCKED: REMARK    6  A    between atoms: C_12  and  C_13
DOCKED: REMARK    7  A    between atoms: C_13  and  C_14
DOCKED: REMARK    8  A    between atoms: C_14  and  C_15
DOCKED: REMARK    9  A    between atoms: C_14  and  N_16
DOCKED: REMARK   10  A    between atoms: N_16  and  C_17
DOCKED: REMARK   11  A    between atoms: C_20  and  C_21
DOCKED: REMARK                            x       y       z     vdW  Elec       q    Type
DOCKED: REMARK                         _______ _______ _______ _____ _____    ______ ____
DOCKED: USER                              x       y       z     vdW  Elec       q    Type
DOCKED: USER                           _______ _______ _______ _____ _____    ______ ____
DOCKED: ROOT
DOCKED: ATOM      1  C   UNL     1       8.915  23.921  18.344 -0.14 -0.01    +0.022 C  
DOCKED: ENDROOT
DOCKED: BRANCH   1   2
DOCKED: ATOM      2  C   UNL     1       7.438  23.463  18.394 -0.10 -0.03    +0.067 C  
DOCKED: ATOM      3  C   UNL     1       6.707  23.830  17.095 -0.23 -0.02    +0.028 C  
DOCKED: BRANCH   2   4
DOCKED: ATOM      4  N   UNL     1       7.394  22.007  18.589 -0.00 +0.10    -0.340 N  
DOCKED: ATOM      5  H   UNL     1       6.447  21.627  18.651 +0.02 -0.04    +0.146 HD 
DOCKED: BRANCH   4   6
DOCKED: ATOM      6  C   UNL     1       8.195  21.166  17.790 -0.10 -0.01    +0.046 A  
DOCKED: ATOM      7  C   UNL     1       7.970  21.013  16.416 -0.25 -0.01    +0.024 A  
DOCKED: ATOM      8  C   UNL     1       8.807  20.234  15.615 -0.31 -0.00    +0.005 A  
DOCKED: ATOM      9  C   UNL     1       9.907  19.577  16.164 -0.36 +0.01    -0.049 A  
DOCKED: ATOM     10  C   UNL     1      10.784  18.726  15.300 -0.42 -0.01    +0.044 C  
DOCKED: ATOM     11  C   UNL     1      10.176  19.739  17.527 -0.21 -0.00    +0.025 A  
DOCKED: ATOM     12  C   UNL     1       9.337  20.533  18.322 -0.09 -0.01    +0.062 A  
DOCKED: ATOM     13 CL   UNL     1       9.727  20.690  20.005 -0.05 +0.01    -0.082 Cl 
DOCKED: ENDBRANCH   4   6
DOCKED: ENDBRANCH   2   4
DOCKED: ENDBRANCH   1   2
DOCKED: BRANCH   1  14
DOCKED: ATOM     14  C   UNL     1       9.339  24.325  16.922 -0.25 -0.00    +0.010 C  
DOCKED: BRANCH  14  22
DOCKED: ATOM     15  C   UNL     1      11.748  24.545  17.735 -0.19 +0.00    -0.048 C  
DOCKED: ATOM     16  C   UNL     1      12.734  23.753  18.179 -0.16 +0.00    -0.020 C  
DOCKED: ATOM     17  C   UNL     1      13.099  22.405  17.629 -0.27 -0.00    +0.012 C  
DOCKED: ATOM     18  C   UNL     1      14.602  22.395  17.328 -0.36 -0.00    +0.012 C  
DOCKED: ATOM     19  C   UNL     1      12.198  21.866  16.482 -0.38 +0.00    -0.007 C  
DOCKED: ATOM     20  C   UNL     1      12.953  21.269  15.282 -0.39 -0.00    +0.008 C  
DOCKED: ATOM     21  C   UNL     1      11.098  22.793  15.935 -0.37 -0.00    +0.012 C  
DOCKED: ATOM     22  C   UNL     1      10.843  24.159  16.596 -0.31 -0.00    +0.019 C  
DOCKED: BRANCH  15  25
DOCKED: ATOM     23  C   UNL     1      11.534  28.388  18.094 -0.19 -0.01    +0.035 C  
DOCKED: ATOM     24  C   UNL     1      11.677  27.018  17.513 -0.21 +0.00    -0.030 C  
DOCKED: ATOM     25  C   UNL     1      11.579  25.899  18.244 -0.19 +0.00    -0.001 C  
DOCKED: ENDBRANCH  15  25
DOCKED: ENDBRANCH  14  22
DOCKED: ENDBRANCH   1  14
DOCKED: TORSDOF 6
DOCKED: TER
DOCKED: ENDMDL
________________________________________________________________________________


    CLUSTERING HISTOGRAM
    ____________________


________________________________________________________________________________
     |           |     |           |     |
Clus | Lowest    | Run | Mean      | Num | Histogram
-ter | Binding   |     | Binding   | in  |
Rank | Energy    |     | Energy    | Clus|    5    10   15   20   25   30   35
_____|___________|_____|___________|_____|____:____|____:____|____:____|____:___
   1 |     -5.12 |   1 |     -4.96 |  10 |##########
   2 |     -4.97 |  29 |     -4.73 |   4 |####
   3 |     -4.63 |  38 |     -4.63 |   1 |#
   4 |     -4.09 |   3 |     -3.83 |   7 |#######
   5 |     -4.03 |  43 |     -3.77 |   9 |#########
   6 |     -3.97 |  19 |     -3.85 |   2 |##
   7 |     -3.89 |  28 |     -3.81 |   5 |#####
   8 |     -3.70 |   2 |     -3.65 |   2 |##
   9 |     -3.63 |  21 |     -3.63 |   1 |#
  10 |     -3.63 |  18 |     -3.63 |   1 |#
  11 |     -3.54 |  14 |     -3.54 |   1 |#
  12 |     -3.53 |  24 |     -3.53 |   1 |#
  13 |     -3.46 |  26 |     -3.36 |   2 |##
  14 |     -3.43 |  27 |     -3.43 |   1 |#
  15 |     -3.43 |  11 |     -3.43 |   1 |#
  16 |     -3.38 |  45 |     -3.35 |   2 |##
_____|___________|_____|___________|_____|______________________________________


    RMSD TABLE
    __________


_______________________________________________________________________
     |      |      |           |         |                 |
Rank | Sub- | Run  | Binding   | Cluster | Reference       | Grep
     | Rank |      | Energy    | RMSD    | RMSD            | Pattern
_____|______|______|___________|_________|_________________|___________
   1      1      1       -5.12      0.00     28.60           RANKING
   1      2     44       -5.05      1.14     28.70           RANKING
   1      3     49       -5.03      1.11     28.68           RANKING
   1      4     16       -5.00      1.20     28.72           RANKING
   1      5     46       -4.98      0.32     28.47           RANKING
   1      6     20       -4.96      1.25     28.85           RANKING
   1      7     41       -4.96      1.14     28.75           RANKING
   1      8     42       -4.90      1.17     28.72           RANKING
   1      9     35       -4.85      1.56     29.30           RANKING
   1     10     32       -4.71      0.54     28.51           RANKING
   2      1     29       -4.97      0.00     26.30           RANKING
   2      2     36       -4.96      0.17     26.27           RANKING
   2      3     31       -4.94      0.39     26.20           RANKING
   2      4     10       -4.05      1.83     26.30           RANKING
   3      1     38       -4.63      0.00     29.71           RANKING
   4      1      3       -4.09      0.00     27.25           RANKING
   4      2     12       -4.00      0.33     27.25           RANKING
   4      3     47       -3.87      1.02     27.18           RANKING
   4      4     34       -3.81      1.15     27.02           RANKING
   4      5     17       -3.81      1.19     27.26           RANKING
   4      6     13       -3.75      0.62     27.36           RANKING
   4      7     25       -3.46      1.82     27.45           RANKING
   5      1     43       -4.03      0.00     26.49           RANKING
   5      2      7       -4.00      1.20     26.54           RANKING
   5      3     33       -3.91      1.35     26.40           RANKING
   5      4     23       -3.89      1.68     26.40           RANKING
   5      5     40       -3.86      1.73     26.45           RANKING
   5      6      4       -3.66      1.85     26.75           RANKING
   5      7      9       -3.54      1.87     26.89           RANKING
   5      8      5       -3.51      1.30     26.64           RANKING
   5      9     48       -3.50      1.25     26.29           RANKING
   6      1     19       -3.97      0.00     26.71           RANKING
   6      2     50       -3.73      1.74     27.42           RANKING
   7      1     28       -3.89      0.00     27.06           RANKING
   7      2     22       -3.83      0.53     27.22           RANKING
   7      3     39       -3.80      0.51     27.08           RANKING
   7      4      6       -3.77      0.56     27.20           RANKING
   7      5     15       -3.77      0.37     27.09           RANKING
   8      1      2       -3.70      0.00     26.32           RANKING
   8      2     30       -3.60      1.94     26.77           RANKING
   9      1     21       -3.63      0.00     28.00           RANKING
  10      1     18       -3.63      0.00     26.51           RANKING
  11      1     14       -3.54      0.00     34.94           RANKING
  12      1     24       -3.53      0.00     27.26           RANKING
  13      1     26       -3.46      0.00     26.26           RANKING
  13      2      8       -3.26      1.49     26.57           RANKING
  14      1     27       -3.43      0.00     26.61           RANKING
  15      1     11       -3.43      0.00     26.81           RANKING
  16      1     45       -3.38      0.00     26.71           RANKING
  16      2     37       -3.33      0.76     26.63           RANKING

Run time 0.952 sec
Idle time 0.342 sec
