AutoDock-GPU version: v1.6-14-g28a61394827e4a7cc1a0c277bf23f1fdc917bb4f

**********************************************************
**    AutoDock-GPU AUTODOCKTOOLS-COMPATIBLE DLG FILE    **
**********************************************************


    DOCKING PARAMETERS
    ________________________


Ligand file:                               ligands_nrun50/0/ligand0.pdbqt
Grid fld file:                             2g76/2g76.maps.fld

Random seed:                               0
Number of runs:                            50
Number of energy evaluations:              480000
Number of generations:                     42000
Size of population:                        150
Rate of crossover:                         80.000000%
Tournament selection probability limit:    60.000000%
Rate of mutation:                          2.000000%
Maximal allowed delta movement:            +/- 6.000000A
Maximal allowed delta angle:               +/- 90.000000

Rate of local search:                      100.000000%
Maximal number of local search iterations: 300
Rho lower bound:                           0.010000
Spread of local search delta movement:     2.000000A
Spread of local search delta angle:        74.999999
Limit of consecutive successes/failures:   4

Handle symmetry during clustering:         YES
RMSD tolerance:                            2.000000A

Program call in command line was:          ../bin/autodock_gpu_128wi -M 2g76/2g76.maps.fld -L ligands_nrun50/0/ligand0.pdbqt -N outs_nrun50/ligand0 -nrun 50 -s 0 


    GRID PARAMETERS
    ________________________


Receptor name:                             2g76
Number of grid points (x, y, z):           61, 61, 61
Grid center (x, y, z):                     14.547000, 25.866000, 14.134000A
Grid size (x, y, z):                       22.500000, 22.500000, 22.500000A
Grid spacing:                              0.375000A


    LIGAND PARAMETERS
    ________________________


Ligand name:                               ligands_nrun50/0/ligand0
Number of atoms:                           22
Number of rotatable bonds:                 4
Number of atom types:                      2


    DUMMY DATA (only for ADT-compatibility)
    ________________________


DPF> outlev 1
DPF> ga_run 50
DPF> fld 2g76/2g76.maps.fld
DPF> move ligands_nrun50/0/ligand0.pdbqt


    COUNTER STATES
    ________________________


Number of energy evaluations performed:    491355
Number of generations used:                27


    INPUT LIGAND PDBQT FILE:
    ________________________


INPUT-LIGAND-PDBQT: REMARK  Name = 
INPUT-LIGAND-PDBQT: REMARK  4 active torsions:
INPUT-LIGAND-PDBQT: REMARK  status: ('A' for Active; 'I' for Inactive)
INPUT-LIGAND-PDBQT: REMARK    1  A    between atoms: C_7  and  C_8
INPUT-LIGAND-PDBQT: REMARK    2  A    between atoms: C_8  and  C_9
INPUT-LIGAND-PDBQT: REMARK    3  A    between atoms: C_9  and  C_10
INPUT-LIGAND-PDBQT: REMARK    4  A    between atoms: C_11  and  C_12
INPUT-LIGAND-PDBQT: REMARK                            x       y       z     vdW  Elec       q    Type
INPUT-LIGAND-PDBQT: REMARK                         _______ _______ _______ _____ _____    ______ ____
INPUT-LIGAND-PDBQT: ROOT
INPUT-LIGAND-PDBQT: ATOM      1  C   UNL     1       1.952   4.101  -2.746  0.00  0.00    -0.026 C 
INPUT-LIGAND-PDBQT: ATOM      2  C   UNL     1       1.481   5.229  -3.291  0.00  0.00    -0.004 C 
INPUT-LIGAND-PDBQT: ENDROOT
INPUT-LIGAND-PDBQT: BRANCH   2   3
INPUT-LIGAND-PDBQT: ATOM      3  C   UNL     1       2.256   6.068  -4.178  0.00  0.00    +0.004 C 
INPUT-LIGAND-PDBQT: ATOM      4  C   UNL     1       1.803   7.195  -4.777  0.00  0.00    -0.036 C 
INPUT-LIGAND-PDBQT: ATOM      5  C   UNL     1       0.374   7.665  -4.548  0.00  0.00    +0.063 C 
INPUT-LIGAND-PDBQT: ATOM      6  C   UNL     1      -0.040   8.913  -5.259  0.00  0.00    -0.022 C 
INPUT-LIGAND-PDBQT: ATOM      7  C   UNL     1       0.762   9.613  -6.062  0.00  0.00    +0.004 C 
INPUT-LIGAND-PDBQT: ATOM      8  C   UNL     1       2.141   9.180  -6.294  0.00  0.00    -0.018 A 
INPUT-LIGAND-PDBQT: ATOM      9  C   UNL     1       2.939   9.960  -7.147  0.00  0.00    +0.008 A 
INPUT-LIGAND-PDBQT: ATOM     10  C   UNL     1       4.261   9.608  -7.405  0.00  0.00    +0.001 A 
INPUT-LIGAND-PDBQT: ATOM     11  C   UNL     1       4.794   8.474  -6.813  0.00  0.00    +0.001 A 
INPUT-LIGAND-PDBQT: ATOM     12  C   UNL     1       4.008   7.689  -5.964  0.00  0.00    +0.009 A 
INPUT-LIGAND-PDBQT: ATOM     13  C   UNL     1       2.666   8.018  -5.685  0.00  0.00    -0.014 A 
INPUT-LIGAND-PDBQT: ENDBRANCH   2   3
INPUT-LIGAND-PDBQT: BRANCH   1  14
INPUT-LIGAND-PDBQT: ATOM     14  C   UNL     1       1.095   3.242  -1.856  0.00  0.00    +0.031 C 
INPUT-LIGAND-PDBQT: BRANCH  14  15
INPUT-LIGAND-PDBQT: ATOM     15  C   UNL     1       1.919   2.528  -0.783  0.00  0.00    +0.035 C 
INPUT-LIGAND-PDBQT: BRANCH  15  22
INPUT-LIGAND-PDBQT: ATOM     16  C   UNL     1       0.383   0.506  -0.475  0.00  0.00    +0.031 C 
INPUT-LIGAND-PDBQT: ATOM     17  C   UNL     1      -0.327  -0.542   0.386  0.00  0.00    +0.008 C 
INPUT-LIGAND-PDBQT: ATOM     18  C   UNL     1       0.486  -1.006   1.587  0.00  0.00    +0.027 C 
INPUT-LIGAND-PDBQT: ATOM     19  C   UNL     1       0.383  -0.029   2.716  0.00  0.00    -0.027 C 
INPUT-LIGAND-PDBQT: ATOM     20  C   UNL     1       0.594   1.290   2.623  0.00  0.00    -0.004 C 
INPUT-LIGAND-PDBQT: ATOM     21  C   UNL     1       1.137   1.988   1.486  0.00  0.00    -0.001 C 
INPUT-LIGAND-PDBQT: ATOM     22  C   UNL     1       1.090   1.680   0.176  0.00  0.00    -0.069 C 
INPUT-LIGAND-PDBQT: ENDBRANCH  15  22
INPUT-LIGAND-PDBQT: ENDBRANCH  14  15
INPUT-LIGAND-PDBQT: ENDBRANCH   1  14
INPUT-LIGAND-PDBQT: TORSDOF 4


    FINAL DOCKED STATE:
    ________________________


Run:   1 / 50
Time taken for this run:   0.000s

DOCKED: MODEL        1
DOCKED: USER    Run = 1
DOCKED: USER
DOCKED: USER    Estimated Free Energy of Binding    =  -4.60 kcal/mol  [=(1)+(2)+(3)-(4)]
DOCKED: USER
DOCKED: USER    (1) Final Intermolecular Energy     =  -5.79 kcal/mol
DOCKED: USER        vdW + Hbond + desolv Energy     =  -5.79 kcal/mol
DOCKED: USER        Electrostatic Energy            =  +0.00 kcal/mol
DOCKED: USER        Moving Ligand-Fixed Receptor    =  -5.79 kcal/mol
DOCKED: USER        Moving Ligand-Moving Receptor   =  +0.00 kcal/mol
DOCKED: USER    (2) Final Total Internal Energy     =  -1.30 kcal/mol
DOCKED: USER    (3) Torsional Free Energy           =  +1.19 kcal/mol
DOCKED: USER    (4) Unbound System's Energy         =  -1.30 kcal/mol
DOCKED: USER
DOCKED: USER
DOCKED: REMARK  Name = 
DOCKED: REMARK  4 active torsions:
DOCKED: REMARK  status: ('A' for Active; 'I' for Inactive)
DOCKED: REMARK    1  A    between atoms: C_7  and  C_8
DOCKED: REMARK    2  A    between atoms: C_8  and  C_9
DOCKED: REMARK    3  A    between atoms: C_9  and  C_10
DOCKED: REMARK    4  A    between atoms: C_11  and  C_12
DOCKED: REMARK                            x       y       z     vdW  Elec       q    Type
DOCKED: REMARK                         _______ _______ _______ _____ _____    ______ ____
DOCKED: USER                              x       y       z     vdW  Elec       q    Type
DOCKED: USER                           _______ _______ _______ _____ _____    ______ ____
DOCKED: ROOT
DOCKED: ATOM      1  C   UNL     1       5.229  21.970  15.189 -0.29 +0.01    -0.026 C  
DOCKED: ATOM      2  C   UNL     1       5.971  21.880  16.299 -0.26 +0.00    -0.004 C  
DOCKED: ENDROOT
DOCKED: BRANCH   2   3
DOCKED: ATOM      3  C   UNL     1       7.360  22.276  16.361 -0.31 -0.00    +0.004 C  
DOCKED: ATOM      4  C   UNL     1       8.415  21.440  16.209 -0.32 +0.01    -0.036 C  
DOCKED: ATOM      5  C   UNL     1       8.190  19.956  15.960 -0.30 -0.01    +0.063 C  
DOCKED: ATOM      6  C   UNL     1       9.414  19.110  15.816 -0.35 +0.00    -0.022 C  
DOCKED: ATOM      7  C   UNL     1      10.658  19.583  15.893 -0.47 -0.00    +0.004 C  
DOCKED: ATOM      8  C   UNL     1      10.898  21.008  16.130 -0.32 +0.00    -0.018 A  
DOCKED: ATOM      9  C   UNL     1      12.230  21.447  16.198 -0.38 -0.00    +0.008 A  
DOCKED: ATOM     10  C   UNL     1      12.527  22.790  16.414 -0.23 +0.00    +0.001 A  
DOCKED: ATOM     11  C   UNL     1      11.495  23.702  16.564 -0.25 +0.00    +0.001 A  
DOCKED: ATOM     12  C   UNL     1      10.165  23.276  16.500 -0.28 -0.00    +0.009 A  
DOCKED: ATOM     13  C   UNL     1       9.832  21.923  16.285 -0.27 +0.00    -0.014 A  
DOCKED: ENDBRANCH   2   3
DOCKED: BRANCH   1  14
DOCKED: ATOM     14  C   UNL     1       3.776  21.578  15.182 -0.28 -0.01    +0.031 C  
DOCKED: BRANCH  14  15
DOCKED: ATOM     15  C   UNL     1       3.345  20.952  16.510 -0.10 -0.01    +0.035 C  
DOCKED: BRANCH  15  22
DOCKED: ATOM     16  C   UNL     1       3.710  18.583  15.616 -0.24 -0.00    +0.031 C  
DOCKED: ATOM     17  C   UNL     1       4.394  17.214  15.636 -0.30 -0.00    +0.008 C  
DOCKED: ATOM     18  C   UNL     1       5.863  17.265  16.035 -0.31 -0.00    +0.027 C  
DOCKED: ATOM     19  C   UNL     1       6.015  17.348  17.521 -0.22 +0.00    -0.027 C  
DOCKED: ATOM     20  C   UNL     1       5.392  18.226  18.318 -0.10 +0.00    -0.004 C  
DOCKED: ATOM     21  C   UNL     1       4.619  19.364  17.891 -0.08 +0.00    -0.001 C  
DOCKED: ATOM     22  C   UNL     1       3.920  19.561  16.757 -0.12 +0.01    -0.069 C  
DOCKED: ENDBRANCH  15  22
DOCKED: ENDBRANCH  14  15
DOCKED: ENDBRANCH   1  14
DOCKED: TORSDOF 4
DOCKED: TER
DOCKED: ENDMDL
________________________________________________________________________________


    FINAL DOCKED STATE:
    ________________________


Run:   2 / 50
Time taken for this run:   0.000s

DOCKED: MODEL        2
DOCKED: USER    Run = 2
DOCKED: USER
DOCKED: USER    Estimated Free Energy of Binding    =  -5.13 kcal/mol  [=(1)+(2)+(3)-(4)]
DOCKED: USER
DOCKED: USER    (1) Final Intermolecular Energy     =  -6.32 kcal/mol
DOCKED: USER        vdW + Hbond + desolv Energy     =  -6.33 kcal/mol
DOCKED: USER        Electrostatic Energy            =  +0.00 kcal/mol
DOCKED: USER        Moving Ligand-Fixed Receptor    =  -6.32 kcal/mol
DOCKED: USER        Moving Ligand-Moving Receptor   =  +0.00 kcal/mol
DOCKED: USER    (2) Final Total Internal Energy     =  -0.79 kcal/mol
DOCKED: USER    (3) Torsional Free Energy           =  +1.19 kcal/mol
DOCKED: USER    (4) Unbound System's Energy         =  -0.79 kcal/mol
DOCKED: USER
DOCKED: USER
DOCKED: REMARK  Name = 
DOCKED: REMARK  4 active torsions:
DOCKED: REMARK  status: ('A' for Active; 'I' for Inactive)
DOCKED: REMARK    1  A    between atoms: C_7  and  C_8
DOCKED: REMARK    2  A    between atoms: C_8  and  C_9
DOCKED: REMARK    3  A    between atoms: C_9  and  C_10
DOCKED: REMARK    4  A    between atoms: C_11  and  C_12
DOCKED: REMARK                            x       y       z     vdW  Elec       q    Type
DOCKED: REMARK                         _______ _______ _______ _____ _____    ______ ____
DOCKED: USER                              x       y       z     vdW  Elec       q    Type
DOCKED: USER                           _______ _______ _______ _____ _____    ______ ____
DOCKED: ROOT
DOCKED: ATOM      1  C   UNL     1      14.836  22.330  18.201 -0.29 +0.00    -0.026 C  
DOCKED: ATOM      2  C   UNL     1      14.449  21.954  16.976 -0.37 +0.00    -0.004 C  
DOCKED: ENDROOT
DOCKED: BRANCH   2   3
DOCKED: ATOM      3  C   UNL     1      13.149  21.390  16.692 -0.35 -0.00    +0.004 C  
DOCKED: ATOM      4  C   UNL     1      12.012  22.104  16.512 -0.34 +0.00    -0.036 C  
DOCKED: ATOM      5  C   UNL     1      12.035  23.622  16.615 -0.19 +0.01    +0.063 C  
DOCKED: ATOM      6  C   UNL     1      10.732  24.325  16.413 -0.33 +0.00    -0.022 C  
DOCKED: ATOM      7  C   UNL     1       9.582  23.700  16.155 -0.36 -0.00    +0.004 C  
DOCKED: ATOM      8  C   UNL     1       9.538  22.241  16.050 -0.31 +0.00    -0.018 A  
DOCKED: ATOM      9  C   UNL     1       8.299  21.640  15.773 -0.34 -0.00    +0.008 A  
DOCKED: ATOM     10  C   UNL     1       8.188  20.258  15.653 -0.21 -0.00    +0.001 A  
DOCKED: ATOM     11  C   UNL     1       9.315  19.466  15.810 -0.38 -0.00    +0.001 A  
DOCKED: ATOM     12  C   UNL     1      10.553  20.053  16.088 -0.38 -0.00    +0.009 A  
DOCKED: ATOM     13  C   UNL     1      10.696  21.450  16.217 -0.29 +0.00    -0.014 A  
DOCKED: ENDBRANCH   2   3
DOCKED: BRANCH   1  14
DOCKED: ATOM     14  C   UNL     1      16.188  22.945  18.442 -0.22 -0.00    +0.031 C  
DOCKED: BRANCH  14  15
DOCKED: ATOM     15  C   UNL     1      16.796  23.514  17.159 -0.31 -0.01    +0.035 C  
DOCKED: BRANCH  15  22
DOCKED: ATOM     16  C   UNL     1      18.100  25.571  16.378 -0.31 -0.00    +0.031 C  
DOCKED: ATOM     17  C   UNL     1      18.237  27.073  16.112 -0.24 +0.00    +0.008 C  
DOCKED: ATOM     18  C   UNL     1      16.952  27.732  15.628 -0.27 +0.01    +0.027 C  
DOCKED: ATOM     19  C   UNL     1      16.038  28.033  16.774 -0.20 -0.00    -0.027 C  
DOCKED: ATOM     20  C   UNL     1      15.664  27.160  17.718 -0.17 -0.00    -0.004 C  
DOCKED: ATOM     21  C   UNL     1      15.909  25.741  17.712 -0.19 -0.00    -0.001 C  
DOCKED: ATOM     22  C   UNL     1      16.905  25.035  17.143 -0.27 +0.00    -0.069 C  
DOCKED: ENDBRANCH  15  22
DOCKED: ENDBRANCH  14  15
DOCKED: ENDBRANCH   1  14
DOCKED: TORSDOF 4
DOCKED: TER
DOCKED: ENDMDL
________________________________________________________________________________


    FINAL DOCKED STATE:
    ________________________


Run:   3 / 50
Time taken for this run:   0.000s

DOCKED: MODEL        3
DOCKED: USER    Run = 3
DOCKED: USER
DOCKED: USER    Estimated Free Energy of Binding    =  -5.14 kcal/mol  [=(1)+(2)+(3)-(4)]
DOCKED: USER
DOCKED: USER    (1) Final Intermolecular Energy     =  -6.34 kcal/mol
DOCKED: USER        vdW + Hbond + desolv Energy     =  -6.34 kcal/mol
DOCKED: USER        Electrostatic Energy            =  +0.00 kcal/mol
DOCKED: USER        Moving Ligand-Fixed Receptor    =  -6.34 kcal/mol
DOCKED: USER        Moving Ligand-Moving Receptor   =  +0.00 kcal/mol
DOCKED: USER    (2) Final Total Internal Energy     =  -0.77 kcal/mol
DOCKED: USER    (3) Torsional Free Energy           =  +1.19 kcal/mol
DOCKED: USER    (4) Unbound System's Energy         =  -0.77 kcal/mol
DOCKED: USER
DOCKED: USER
DOCKED: REMARK  Name = 
DOCKED: REMARK  4 active torsions:
DOCKED: REMARK  status: ('A' for Active; 'I' for Inactive)
DOCKED: REMARK    1  A    between atoms: C_7  and  C_8
DOCKED: REMARK    2  A    between atoms: C_8  and  C_9
DOCKED: REMARK    3  A    between atoms: C_9  and  C_10
DOCKED: REMARK    4  A    between atoms: C_11  and  C_12
DOCKED: REMARK                            x       y       z     vdW  Elec       q    Type
DOCKED: REMARK                         _______ _______ _______ _____ _____    ______ ____
DOCKED: USER                              x       y       z     vdW  Elec       q    Type
DOCKED: USER                           _______ _______ _______ _____ _____    ______ ____
DOCKED: ROOT
DOCKED: ATOM      1  C   UNL     1      14.819  22.325  18.191 -0.30 +0.00    -0.026 C  
DOCKED: ATOM      2  C   UNL     1      14.422  21.964  16.965 -0.37 +0.00    -0.004 C  
DOCKED: ENDROOT
DOCKED: BRANCH   2   3
DOCKED: ATOM      3  C   UNL     1      13.128  21.382  16.687 -0.36 -0.00    +0.004 C  
DOCKED: ATOM      4  C   UNL     1      11.986  22.082  16.484 -0.34 +0.00    -0.036 C  
DOCKED: ATOM      5  C   UNL     1      11.996  23.602  16.551 -0.19 +0.01    +0.063 C  
DOCKED: ATOM      6  C   UNL     1      10.687  24.288  16.325 -0.34 +0.00    -0.022 C  
DOCKED: ATOM      7  C   UNL     1       9.544  23.648  16.076 -0.37 -0.00    +0.004 C  
DOCKED: ATOM      8  C   UNL     1       9.513  22.186  16.005 -0.31 +0.00    -0.018 A  
DOCKED: ATOM      9  C   UNL     1       8.281  21.568  15.736 -0.34 -0.00    +0.008 A  
DOCKED: ATOM     10  C   UNL     1       8.183  20.182  15.649 -0.20 -0.00    +0.001 A  
DOCKED: ATOM     11  C   UNL     1       9.316  19.404  15.831 -0.37 -0.00    +0.001 A  
DOCKED: ATOM     12  C   UNL     1      10.547  20.009  16.102 -0.38 -0.00    +0.009 A  
DOCKED: ATOM     13  C   UNL     1      10.678  21.409  16.198 -0.29 +0.00    -0.014 A  
DOCKED: ENDBRANCH   2   3
DOCKED: BRANCH   1  14
DOCKED: ATOM     14  C   UNL     1      16.163  22.960  18.426 -0.23 -0.00    +0.031 C  
DOCKED: BRANCH  14  15
DOCKED: ATOM     15  C   UNL     1      16.759  23.532  17.138 -0.31 -0.00    +0.035 C  
DOCKED: BRANCH  15  22
DOCKED: ATOM     16  C   UNL     1      18.108  25.580  16.410 -0.31 -0.00    +0.031 C  
DOCKED: ATOM     17  C   UNL     1      18.267  27.081  16.154 -0.24 +0.00    +0.008 C  
DOCKED: ATOM     18  C   UNL     1      17.006  27.754  15.629 -0.27 +0.01    +0.027 C  
DOCKED: ATOM     19  C   UNL     1      16.055  28.059  16.743 -0.20 -0.00    -0.027 C  
DOCKED: ATOM     20  C   UNL     1      15.641  27.187  17.671 -0.17 -0.00    -0.004 C  
DOCKED: ATOM     21  C   UNL     1      15.874  25.765  17.669 -0.20 -0.00    -0.001 C  
DOCKED: ATOM     22  C   UNL     1      16.882  25.053  17.131 -0.27 +0.00    -0.069 C  
DOCKED: ENDBRANCH  15  22
DOCKED: ENDBRANCH  14  15
DOCKED: ENDBRANCH   1  14
DOCKED: TORSDOF 4
DOCKED: TER
DOCKED: ENDMDL
________________________________________________________________________________


    FINAL DOCKED STATE:
    ________________________


Run:   4 / 50
Time taken for this run:   0.000s

DOCKED: MODEL        4
DOCKED: USER    Run = 4
DOCKED: USER
DOCKED: USER    Estimated Free Energy of Binding    =  -4.96 kcal/mol  [=(1)+(2)+(3)-(4)]
DOCKED: USER
DOCKED: USER    (1) Final Intermolecular Energy     =  -6.15 kcal/mol
DOCKED: USER        vdW + Hbond + desolv Energy     =  -6.17 kcal/mol
DOCKED: USER        Electrostatic Energy            =  +0.01 kcal/mol
DOCKED: USER        Moving Ligand-Fixed Receptor    =  -6.15 kcal/mol
DOCKED: USER        Moving Ligand-Moving Receptor   =  +0.00 kcal/mol
DOCKED: USER    (2) Final Total Internal Energy     =  -1.06 kcal/mol
DOCKED: USER    (3) Torsional Free Energy           =  +1.19 kcal/mol
DOCKED: USER    (4) Unbound System's Energy         =  -1.06 kcal/mol
DOCKED: USER
DOCKED: USER
DOCKED: REMARK  Name = 
DOCKED: REMARK  4 active torsions:
DOCKED: REMARK  status: ('A' for Active; 'I' for Inactive)
DOCKED: REMARK    1  A    between atoms: C_7  and  C_8
DOCKED: REMARK    2  A    between atoms: C_8  and  C_9
DOCKED: REMARK    3  A    between atoms: C_9  and  C_10
DOCKED: REMARK    4  A    between atoms: C_11  and  C_12
DOCKED: REMARK                            x       y       z     vdW  Elec       q    Type
DOCKED: REMARK                         _______ _______ _______ _____ _____    ______ ____
DOCKED: USER                              x       y       z     vdW  Elec       q    Type
DOCKED: USER                           _______ _______ _______ _____ _____    ______ ____
DOCKED: ROOT
DOCKED: ATOM      1  C   UNL     1      11.613  25.816  17.924 -0.22 +0.00    -0.026 C  
DOCKED: ATOM      2  C   UNL     1      11.116  25.380  16.761 -0.25 -0.00    -0.004 C  
DOCKED: ENDROOT
DOCKED: BRANCH   2   3
DOCKED: ATOM      3  C   UNL     1      10.298  24.194  16.640 -0.32 -0.00    +0.004 C  
DOCKED: ATOM      4  C   UNL     1      10.758  22.960  16.322 -0.32 +0.00    -0.036 C  
DOCKED: ATOM      5  C   UNL     1      12.239  22.739  16.049 -0.25 +0.01    +0.063 C  
DOCKED: ATOM      6  C   UNL     1      12.652  21.347  15.695 -0.47 +0.00    -0.022 C  
DOCKED: ATOM      7  C   UNL     1      11.807  20.319  15.609 -0.41 -0.00    +0.004 C  
DOCKED: ATOM      8  C   UNL     1      10.379  20.509  15.870 -0.32 +0.00    -0.018 A  
DOCKED: ATOM      9  C   UNL     1       9.538  19.388  15.767 -0.38 -0.00    +0.008 A  
DOCKED: ATOM     10  C   UNL     1       8.172  19.498  16.009 -0.31 -0.00    +0.001 A  
DOCKED: ATOM     11  C   UNL     1       7.636  20.729  16.353 -0.26 -0.00    +0.001 A  
DOCKED: ATOM     12  C   UNL     1       8.463  21.852  16.456 -0.26 -0.00    +0.009 A  
DOCKED: ATOM     13  C   UNL     1       9.849  21.773  16.216 -0.27 +0.00    -0.014 A  
DOCKED: ENDBRANCH   2   3
DOCKED: BRANCH   1  14
DOCKED: ATOM     14  C   UNL     1      12.431  27.077  18.006 -0.20 +0.00    +0.031 C  
DOCKED: BRANCH  14  15
DOCKED: ATOM     15  C   UNL     1      13.796  26.834  18.652 -0.12 -0.00    +0.035 C  
DOCKED: BRANCH  15  22
DOCKED: ATOM     16  C   UNL     1      15.711  26.658  16.965 -0.21 +0.01    +0.031 C  
DOCKED: ATOM     17  C   UNL     1      16.820  25.887  16.245 -0.33 +0.00    +0.008 C  
DOCKED: ATOM     18  C   UNL     1      17.531  24.866  17.123 -0.29 -0.00    +0.027 C  
DOCKED: ATOM     19  C   UNL     1      16.738  23.601  17.225 -0.32 +0.00    -0.027 C  
DOCKED: ATOM     20  C   UNL     1      15.442  23.521  17.553 -0.30 +0.00    -0.004 C  
DOCKED: ATOM     21  C   UNL     1      14.620  24.596  18.047 -0.18 -0.00    -0.001 C  
DOCKED: ATOM     22  C   UNL     1      14.714  25.924  17.843 -0.16 -0.01    -0.069 C  
DOCKED: ENDBRANCH  15  22
DOCKED: ENDBRANCH  14  15
DOCKED: ENDBRANCH   1  14
DOCKED: TORSDOF 4
DOCKED: TER
DOCKED: ENDMDL
________________________________________________________________________________


    FINAL DOCKED STATE:
    ________________________


Run:   5 / 50
Time taken for this run:   0.000s

DOCKED: MODEL        5
DOCKED: USER    Run = 5
DOCKED: USER
DOCKED: USER    Estimated Free Energy of Binding    =  -5.29 kcal/mol  [=(1)+(2)+(3)-(4)]
DOCKED: USER
DOCKED: USER    (1) Final Intermolecular Energy     =  -6.48 kcal/mol
DOCKED: USER        vdW + Hbond + desolv Energy     =  -6.50 kcal/mol
DOCKED: USER        Electrostatic Energy            =  +0.01 kcal/mol
DOCKED: USER        Moving Ligand-Fixed Receptor    =  -6.48 kcal/mol
DOCKED: USER        Moving Ligand-Moving Receptor   =  +0.00 kcal/mol
DOCKED: USER    (2) Final Total Internal Energy     =  -0.58 kcal/mol
DOCKED: USER    (3) Torsional Free Energy           =  +1.19 kcal/mol
DOCKED: USER    (4) Unbound System's Energy         =  -0.58 kcal/mol
DOCKED: USER
DOCKED: USER
DOCKED: REMARK  Name = 
DOCKED: REMARK  4 active torsions:
DOCKED: REMARK  status: ('A' for Active; 'I' for Inactive)
DOCKED: REMARK    1  A    between atoms: C_7  and  C_8
DOCKED: REMARK    2  A    between atoms: C_8  and  C_9
DOCKED: REMARK    3  A    between atoms: C_9  and  C_10
DOCKED: REMARK    4  A    between atoms: C_11  and  C_12
DOCKED: REMARK                            x       y       z     vdW  Elec       q    Type
DOCKED: REMARK                         _______ _______ _______ _____ _____    ______ ____
DOCKED: USER                              x       y       z     vdW  Elec       q    Type
DOCKED: USER                           _______ _______ _______ _____ _____    ______ ____
DOCKED: ROOT
DOCKED: ATOM      1  C   UNL     1      14.732  22.130  17.808 -0.33 +0.00    -0.026 C  
DOCKED: ATOM      2  C   UNL     1      13.946  22.035  16.729 -0.35 +0.00    -0.004 C  
DOCKED: ENDROOT
DOCKED: BRANCH   2   3
DOCKED: ATOM      3  C   UNL     1      12.686  21.326  16.722 -0.35 -0.00    +0.004 C  
DOCKED: ATOM      4  C   UNL     1      11.495  21.859  16.360 -0.34 +0.00    -0.036 C  
DOCKED: ATOM      5  C   UNL     1      11.405  23.314  15.926 -0.30 +0.01    +0.063 C  
DOCKED: ATOM      6  C   UNL     1      10.047  23.817  15.554 -0.43 +0.00    -0.022 C  
DOCKED: ATOM      7  C   UNL     1       8.943  23.071  15.586 -0.40 -0.00    +0.004 C  
DOCKED: ATOM      8  C   UNL     1       9.007  21.668  15.999 -0.31 +0.00    -0.018 A  
DOCKED: ATOM      9  C   UNL     1       7.811  20.931  16.009 -0.30 -0.00    +0.008 A  
DOCKED: ATOM     10  C   UNL     1       7.803  19.591  16.384 -0.28 -0.00    +0.001 A  
DOCKED: ATOM     11  C   UNL     1       8.990  18.978  16.753 -0.28 -0.00    +0.001 A  
DOCKED: ATOM     12  C   UNL     1      10.186  19.702  16.749 -0.30 -0.00    +0.009 A  
DOCKED: ATOM     13  C   UNL     1      10.226  21.061  16.376 -0.28 +0.00    -0.014 A  
DOCKED: ENDBRANCH   2   3
DOCKED: BRANCH   1  14
DOCKED: ATOM     14  C   UNL     1      16.019  22.910  17.776 -0.28 -0.01    +0.031 C  
DOCKED: BRANCH  14  15
DOCKED: ATOM     15  C   UNL     1      15.783  24.412  17.944 -0.21 -0.00    +0.035 C  
DOCKED: BRANCH  15  22
DOCKED: ATOM     16  C   UNL     1      16.020  26.611  16.660 -0.24 +0.01    +0.031 C  
DOCKED: ATOM     17  C   UNL     1      16.841  27.669  15.917 -0.29 +0.00    +0.008 C  
DOCKED: ATOM     18  C   UNL     1      18.237  27.879  16.489 -0.16 -0.00    +0.027 C  
DOCKED: ATOM     19  C   UNL     1      19.181  26.825  16.002 -0.21 +0.00    -0.027 C  
DOCKED: ATOM     20  C   UNL     1      18.964  25.505  16.053 -0.26 +0.00    -0.004 C  
DOCKED: ATOM     21  C   UNL     1      17.886  24.844  16.744 -0.34 +0.00    -0.001 C  
DOCKED: ATOM     22  C   UNL     1      16.647  25.282  17.038 -0.26 -0.00    -0.069 C  
DOCKED: ENDBRANCH  15  22
DOCKED: ENDBRANCH  14  15
DOCKED: ENDBRANCH   1  14
DOCKED: TORSDOF 4
DOCKED: TER
DOCKED: ENDMDL
________________________________________________________________________________


    FINAL DOCKED STATE:
    ________________________


Run:   6 / 50
Time taken for this run:   0.000s

DOCKED: MODEL        6
DOCKED: USER    Run = 6
DOCKED: USER
DOCKED: USER    Estimated Free Energy of Binding    =  -5.18 kcal/mol  [=(1)+(2)+(3)-(4)]
DOCKED: USER
DOCKED: USER    (1) Final Intermolecular Energy     =  -6.37 kcal/mol
DOCKED: USER        vdW + Hbond + desolv Energy     =  -6.38 kcal/mol
DOCKED: USER        Electrostatic Energy            =  +0.01 kcal/mol
DOCKED: USER        Moving Ligand-Fixed Receptor    =  -6.37 kcal/mol
DOCKED: USER        Moving Ligand-Moving Receptor   =  +0.00 kcal/mol
DOCKED: USER    (2) Final Total Internal Energy     =  -0.58 kcal/mol
DOCKED: USER    (3) Torsional Free Energy           =  +1.19 kcal/mol
DOCKED: USER    (4) Unbound System's Energy         =  -0.58 kcal/mol
DOCKED: USER
DOCKED: USER
DOCKED: REMARK  Name = 
DOCKED: REMARK  4 active torsions:
DOCKED: REMARK  status: ('A' for Active; 'I' for Inactive)
DOCKED: REMARK    1  A    between atoms: C_7  and  C_8
DOCKED: REMARK    2  A    between atoms: C_8  and  C_9
DOCKED: REMARK    3  A    between atoms: C_9  and  C_10
DOCKED: REMARK    4  A    between atoms: C_11  and  C_12
DOCKED: REMARK                            x       y       z     vdW  Elec       q    Type
DOCKED: REMARK                         _______ _______ _______ _____ _____    ______ ____
DOCKED: USER                              x       y       z     vdW  Elec       q    Type
DOCKED: USER                           _______ _______ _______ _____ _____    ______ ____
DOCKED: ROOT
DOCKED: ATOM      1  C   UNL     1      14.685  22.785  18.104 -0.27 +0.00    -0.026 C  
DOCKED: ATOM      2  C   UNL     1      14.414  22.051  17.018 -0.37 +0.00    -0.004 C  
DOCKED: ENDROOT
DOCKED: BRANCH   2   3
DOCKED: ATOM      3  C   UNL     1      13.151  21.379  16.806 -0.34 -0.00    +0.004 C  
DOCKED: ATOM      4  C   UNL     1      11.981  21.995  16.512 -0.34 +0.00    -0.036 C  
DOCKED: ATOM      5  C   UNL     1      11.921  23.511  16.390 -0.22 +0.01    +0.063 C  
DOCKED: ATOM      6  C   UNL     1      10.586  24.103  16.074 -0.37 +0.00    -0.022 C  
DOCKED: ATOM      7  C   UNL     1       9.476  23.384  15.899 -0.39 -0.00    +0.004 C  
DOCKED: ATOM      8  C   UNL     1       9.512  21.925  16.009 -0.30 +0.00    -0.018 A  
DOCKED: ATOM      9  C   UNL     1       8.312  21.222  15.811 -0.32 -0.00    +0.008 A  
DOCKED: ATOM     10  C   UNL     1       8.278  19.833  15.895 -0.27 -0.00    +0.001 A  
DOCKED: ATOM     11  C   UNL     1       9.443  19.137  16.178 -0.34 -0.00    +0.001 A  
DOCKED: ATOM     12  C   UNL     1      10.642  19.827  16.380 -0.35 -0.00    +0.009 A  
DOCKED: ATOM     13  C   UNL     1      10.708  21.233  16.303 -0.29 +0.00    -0.014 A  
DOCKED: ENDBRANCH   2   3
DOCKED: BRANCH   1  14
DOCKED: ATOM     14  C   UNL     1      16.002  23.494  18.263 -0.24 -0.00    +0.031 C  
DOCKED: BRANCH  14  15
DOCKED: ATOM     15  C   UNL     1      16.272  24.467  17.113 -0.26 -0.00    +0.035 C  
DOCKED: BRANCH  15  22
DOCKED: ATOM     16  C   UNL     1      18.720  23.964  17.657 -0.23 -0.00    +0.031 C  
DOCKED: ATOM     17  C   UNL     1      20.225  24.167  17.460 -0.20 -0.00    +0.008 C  
DOCKED: ATOM     18  C   UNL     1      20.626  24.440  16.017 -0.23 -0.01    +0.027 C  
DOCKED: ATOM     19  C   UNL     1      20.400  25.876  15.659 -0.22 +0.00    -0.027 C  
DOCKED: ATOM     20  C   UNL     1      19.263  26.555  15.855 -0.22 +0.00    -0.004 C  
DOCKED: ATOM     21  C   UNL     1      17.998  25.999  16.263 -0.32 -0.00    -0.001 C  
DOCKED: ATOM     22  C   UNL     1      17.729  24.904  16.997 -0.28 +0.01    -0.069 C  
DOCKED: ENDBRANCH  15  22
DOCKED: ENDBRANCH  14  15
DOCKED: ENDBRANCH   1  14
DOCKED: TORSDOF 4
DOCKED: TER
DOCKED: ENDMDL
________________________________________________________________________________


    FINAL DOCKED STATE:
    ________________________


Run:   7 / 50
Time taken for this run:   0.000s

DOCKED: MODEL        7
DOCKED: USER    Run = 7
DOCKED: USER
DOCKED: USER    Estimated Free Energy of Binding    =  -4.64 kcal/mol  [=(1)+(2)+(3)-(4)]
DOCKED: USER
DOCKED: USER    (1) Final Intermolecular Energy     =  -5.83 kcal/mol
DOCKED: USER        vdW + Hbond + desolv Energy     =  -5.83 kcal/mol
DOCKED: USER        Electrostatic Energy            =  -0.01 kcal/mol
DOCKED: USER        Moving Ligand-Fixed Receptor    =  -5.83 kcal/mol
DOCKED: USER        Moving Ligand-Moving Receptor   =  +0.00 kcal/mol
DOCKED: USER    (2) Final Total Internal Energy     =  -1.21 kcal/mol
DOCKED: USER    (3) Torsional Free Energy           =  +1.19 kcal/mol
DOCKED: USER    (4) Unbound System's Energy         =  -1.21 kcal/mol
DOCKED: USER
DOCKED: USER
DOCKED: REMARK  Name = 
DOCKED: REMARK  4 active torsions:
DOCKED: REMARK  status: ('A' for Active; 'I' for Inactive)
DOCKED: REMARK    1  A    between atoms: C_7  and  C_8
DOCKED: REMARK    2  A    between atoms: C_8  and  C_9
DOCKED: REMARK    3  A    between atoms: C_9  and  C_10
DOCKED: REMARK    4  A    between atoms: C_11  and  C_12
DOCKED: REMARK                            x       y       z     vdW  Elec       q    Type
DOCKED: REMARK                         _______ _______ _______ _____ _____    ______ ____
DOCKED: USER                              x       y       z     vdW  Elec       q    Type
DOCKED: USER                           _______ _______ _______ _____ _____    ______ ____
DOCKED: ROOT
DOCKED: ATOM      1  C   UNL     1       7.148  18.061  16.821 -0.24 +0.00    -0.026 C  
DOCKED: ATOM      2  C   UNL     1       7.774  19.012  16.117 -0.24 +0.00    -0.004 C  
DOCKED: ENDROOT
DOCKED: BRANCH   2   3
DOCKED: ATOM      3  C   UNL     1       9.039  19.590  16.511 -0.36 -0.00    +0.004 C  
DOCKED: ATOM      4  C   UNL     1       9.424  20.865  16.262 -0.32 +0.01    -0.036 C  
DOCKED: ATOM      5  C   UNL     1       8.504  21.810  15.504 -0.33 -0.02    +0.063 C  
DOCKED: ATOM      6  C   UNL     1       9.017  23.194  15.267 -0.33 +0.01    -0.022 C  
DOCKED: ATOM      7  C   UNL     1      10.211  23.625  15.676 -0.44 -0.00    +0.004 C  
DOCKED: ATOM      8  C   UNL     1      11.111  22.732  16.409 -0.28 +0.00    -0.018 A  
DOCKED: ATOM      9  C   UNL     1      12.354  23.244  16.817 -0.22 +0.00    +0.008 A  
DOCKED: ATOM     10  C   UNL     1      13.254  22.451  17.523 -0.26 -0.00    +0.001 A  
DOCKED: ATOM     11  C   UNL     1      12.918  21.140  17.825 -0.18 -0.00    +0.001 A  
DOCKED: ATOM     12  C   UNL     1      11.685  20.620  17.421 -0.19 -0.00    +0.009 A  
DOCKED: ATOM     13  C   UNL     1      10.753  21.398  16.704 -0.25 +0.00    -0.014 A  
DOCKED: ENDBRANCH   2   3
DOCKED: BRANCH   1  14
DOCKED: ATOM     14  C   UNL     1       5.848  17.465  16.351 -0.32 -0.00    +0.031 C  
DOCKED: BRANCH  14  15
DOCKED: ATOM     15  C   UNL     1       4.640  18.137  17.005 -0.19 -0.00    +0.035 C  
DOCKED: BRANCH  15  22
DOCKED: ATOM     16  C   UNL     1       4.887  20.672  17.237 -0.10 -0.01    +0.031 C  
DOCKED: ATOM     17  C   UNL     1       4.808  22.100  16.692 -0.16 -0.00    +0.008 C  
DOCKED: ATOM     18  C   UNL     1       5.190  22.221  15.223 -0.31 -0.01    +0.027 C  
DOCKED: ATOM     19  C   UNL     1       4.048  21.834  14.336 -0.40 +0.01    -0.027 C  
DOCKED: ATOM     20  C   UNL     1       3.338  20.703  14.435 -0.33 +0.00    -0.004 C  
DOCKED: ATOM     21  C   UNL     1       3.647  19.572  15.272 -0.21 +0.00    -0.001 C  
DOCKED: ATOM     22  C   UNL     1       4.314  19.515  16.440 -0.16 +0.01    -0.069 C  
DOCKED: ENDBRANCH  15  22
DOCKED: ENDBRANCH  14  15
DOCKED: ENDBRANCH   1  14
DOCKED: TORSDOF 4
DOCKED: TER
DOCKED: ENDMDL
________________________________________________________________________________


    FINAL DOCKED STATE:
    ________________________


Run:   8 / 50
Time taken for this run:   0.000s

DOCKED: MODEL        8
DOCKED: USER    Run = 8
DOCKED: USER
DOCKED: USER    Estimated Free Energy of Binding    =  -5.14 kcal/mol  [=(1)+(2)+(3)-(4)]
DOCKED: USER
DOCKED: USER    (1) Final Intermolecular Energy     =  -6.33 kcal/mol
DOCKED: USER        vdW + Hbond + desolv Energy     =  -6.33 kcal/mol
DOCKED: USER        Electrostatic Energy            =  +0.00 kcal/mol
DOCKED: USER        Moving Ligand-Fixed Receptor    =  -6.33 kcal/mol
DOCKED: USER        Moving Ligand-Moving Receptor   =  +0.00 kcal/mol
DOCKED: USER    (2) Final Total Internal Energy     =  -0.93 kcal/mol
DOCKED: USER    (3) Torsional Free Energy           =  +1.19 kcal/mol
DOCKED: USER    (4) Unbound System's Energy         =  -0.93 kcal/mol
DOCKED: USER
DOCKED: USER
DOCKED: REMARK  Name = 
DOCKED: REMARK  4 active torsions:
DOCKED: REMARK  status: ('A' for Active; 'I' for Inactive)
DOCKED: REMARK    1  A    between atoms: C_7  and  C_8
DOCKED: REMARK    2  A    between atoms: C_8  and  C_9
DOCKED: REMARK    3  A    between atoms: C_9  and  C_10
DOCKED: REMARK    4  A    between atoms: C_11  and  C_12
DOCKED: REMARK                            x       y       z     vdW  Elec       q    Type
DOCKED: REMARK                         _______ _______ _______ _____ _____    ______ ____
DOCKED: USER                              x       y       z     vdW  Elec       q    Type
DOCKED: USER                           _______ _______ _______ _____ _____    ______ ____
DOCKED: ROOT
DOCKED: ATOM      1  C   UNL     1      15.077  22.445  18.363 -0.27 +0.00    -0.026 C  
DOCKED: ATOM      2  C   UNL     1      14.707  22.131  17.116 -0.38 +0.00    -0.004 C  
DOCKED: ENDROOT
DOCKED: BRANCH   2   3
DOCKED: ATOM      3  C   UNL     1      13.436  21.523  16.793 -0.35 -0.00    +0.004 C  
DOCKED: ATOM      4  C   UNL     1      12.274  22.197  16.613 -0.34 +0.00    -0.036 C  
DOCKED: ATOM      5  C   UNL     1      12.234  23.711  16.758 -0.18 +0.01    +0.063 C  
DOCKED: ATOM      6  C   UNL     1      10.907  24.366  16.552 -0.31 +0.00    -0.022 C  
DOCKED: ATOM      7  C   UNL     1       9.788  23.704  16.256 -0.36 -0.00    +0.004 C  
DOCKED: ATOM      8  C   UNL     1       9.804  22.247  16.110 -0.29 +0.00    -0.018 A  
DOCKED: ATOM      9  C   UNL     1       8.596  21.605  15.795 -0.33 -0.00    +0.008 A  
DOCKED: ATOM     10  C   UNL     1       8.543  20.223  15.635 -0.30 -0.00    +0.001 A  
DOCKED: ATOM     11  C   UNL     1       9.698  19.474  15.790 -0.41 -0.00    +0.001 A  
DOCKED: ATOM     12  C   UNL     1      10.907  20.102  16.106 -0.37 -0.00    +0.009 A  
DOCKED: ATOM     13  C   UNL     1      10.991  21.499  16.276 -0.30 +0.00    -0.014 A  
DOCKED: ENDBRANCH   2   3
DOCKED: BRANCH   1  14
DOCKED: ATOM     14  C   UNL     1      16.398  23.109  18.647 -0.20 -0.00    +0.031 C  
DOCKED: BRANCH  14  15
DOCKED: ATOM     15  C   UNL     1      17.022  23.706  17.384 -0.32 -0.00    +0.035 C  
DOCKED: BRANCH  15  22
DOCKED: ATOM     16  C   UNL     1      15.260  25.510  17.812 -0.17 +0.00    +0.031 C  
DOCKED: ATOM     17  C   UNL     1      14.715  26.935  17.680 -0.18 +0.00    +0.008 C  
DOCKED: ATOM     18  C   UNL     1      15.791  28.012  17.708 -0.14 +0.00    +0.027 C  
DOCKED: ATOM     19  C   UNL     1      16.445  28.153  16.369 -0.23 -0.00    -0.027 C  
DOCKED: ATOM     20  C   UNL     1      16.955  27.149  15.644 -0.29 -0.00    -0.004 C  
DOCKED: ATOM     21  C   UNL     1      17.143  25.790  16.084 -0.37 -0.00    -0.001 C  
DOCKED: ATOM     22  C   UNL     1      16.470  25.076  17.005 -0.24 -0.00    -0.069 C  
DOCKED: ENDBRANCH  15  22
DOCKED: ENDBRANCH  14  15
DOCKED: ENDBRANCH   1  14
DOCKED: TORSDOF 4
DOCKED: TER
DOCKED: ENDMDL
________________________________________________________________________________


    FINAL DOCKED STATE:
    ________________________


Run:   9 / 50
Time taken for this run:   0.000s

DOCKED: MODEL        9
DOCKED: USER    Run = 9
DOCKED: USER
DOCKED: USER    Estimated Free Energy of Binding    =  -5.38 kcal/mol  [=(1)+(2)+(3)-(4)]
DOCKED: USER
DOCKED: USER    (1) Final Intermolecular Energy     =  -6.57 kcal/mol
DOCKED: USER        vdW + Hbond + desolv Energy     =  -6.58 kcal/mol
DOCKED: USER        Electrostatic Energy            =  +0.01 kcal/mol
DOCKED: USER        Moving Ligand-Fixed Receptor    =  -6.57 kcal/mol
DOCKED: USER        Moving Ligand-Moving Receptor   =  +0.00 kcal/mol
DOCKED: USER    (2) Final Total Internal Energy     =  -0.52 kcal/mol
DOCKED: USER    (3) Torsional Free Energy           =  +1.19 kcal/mol
DOCKED: USER    (4) Unbound System's Energy         =  -0.52 kcal/mol
DOCKED: USER
DOCKED: USER
DOCKED: REMARK  Name = 
DOCKED: REMARK  4 active torsions:
DOCKED: REMARK  status: ('A' for Active; 'I' for Inactive)
DOCKED: REMARK    1  A    between atoms: C_7  and  C_8
DOCKED: REMARK    2  A    between atoms: C_8  and  C_9
DOCKED: REMARK    3  A    between atoms: C_9  and  C_10
DOCKED: REMARK    4  A    between atoms: C_11  and  C_12
DOCKED: REMARK                            x       y       z     vdW  Elec       q    Type
DOCKED: REMARK                         _______ _______ _______ _____ _____    ______ ____
DOCKED: USER                              x       y       z     vdW  Elec       q    Type
DOCKED: USER                           _______ _______ _______ _____ _____    ______ ____
DOCKED: ROOT
DOCKED: ATOM      1  C   UNL     1      14.581  22.454  17.093 -0.32 +0.00    -0.026 C  
DOCKED: ATOM      2  C   UNL     1      15.398  23.210  17.836 -0.30 +0.00    -0.004 C  
DOCKED: ENDROOT
DOCKED: BRANCH   2   3
DOCKED: ATOM      3  C   UNL     1      16.794  23.418  17.522 -0.32 -0.00    +0.004 C  
DOCKED: ATOM      4  C   UNL     1      17.319  24.565  17.029 -0.32 +0.00    -0.036 C  
DOCKED: ATOM      5  C   UNL     1      16.422  25.764  16.753 -0.26 +0.01    +0.063 C  
DOCKED: ATOM      6  C   UNL     1      17.088  26.982  16.201 -0.31 -0.00    -0.022 C  
DOCKED: ATOM      7  C   UNL     1      18.394  27.065  15.945 -0.22 +0.00    +0.004 C  
DOCKED: ATOM      8  C   UNL     1      19.275  25.925  16.205 -0.22 +0.00    -0.018 A  
DOCKED: ATOM      9  C   UNL     1      20.642  26.074  15.919 -0.18 -0.00    +0.008 A  
DOCKED: ATOM     10  C   UNL     1      21.535  25.031  16.150 -0.16 -0.00    +0.001 A  
DOCKED: ATOM     11  C   UNL     1      21.068  23.833  16.667 -0.22 -0.00    +0.001 A  
DOCKED: ATOM     12  C   UNL     1      19.709  23.674  16.953 -0.20 -0.00    +0.009 A  
DOCKED: ATOM     13  C   UNL     1      18.780  24.710  16.729 -0.24 +0.00    -0.014 A  
DOCKED: ENDBRANCH   2   3
DOCKED: BRANCH   1  14
DOCKED: ATOM     14  C   UNL     1      13.125  22.296  17.440 -0.29 -0.00    +0.031 C  
DOCKED: BRANCH  14  15
DOCKED: ATOM     15  C   UNL     1      12.211  22.799  16.321 -0.30 +0.00    +0.035 C  
DOCKED: BRANCH  15  22
DOCKED: ATOM     16  C   UNL     1      11.701  20.430  15.502 -0.41 -0.00    +0.031 C  
DOCKED: ATOM     17  C   UNL     1      10.749  19.263  15.228 -0.51 -0.00    +0.008 C  
DOCKED: ATOM     18  C   UNL     1       9.636  19.121  16.257 -0.38 -0.00    +0.027 C  
DOCKED: ATOM     19  C   UNL     1       8.520  20.079  15.977 -0.36 +0.00    -0.027 C  
DOCKED: ATOM     20  C   UNL     1       8.659  21.395  15.772 -0.37 +0.00    -0.004 C  
DOCKED: ATOM     21  C   UNL     1       9.861  22.165  15.965 -0.35 +0.00    -0.001 C  
DOCKED: ATOM     22  C   UNL     1      11.152  21.792  15.884 -0.33 +0.00    -0.069 C  
DOCKED: ENDBRANCH  15  22
DOCKED: ENDBRANCH  14  15
DOCKED: ENDBRANCH   1  14
DOCKED: TORSDOF 4
DOCKED: TER
DOCKED: ENDMDL
________________________________________________________________________________


    FINAL DOCKED STATE:
    ________________________


Run:   10 / 50
Time taken for this run:   0.000s

DOCKED: MODEL        10
DOCKED: USER    Run = 10
DOCKED: USER
DOCKED: USER    Estimated Free Energy of Binding    =  -5.15 kcal/mol  [=(1)+(2)+(3)-(4)]
DOCKED: USER
DOCKED: USER    (1) Final Intermolecular Energy     =  -6.34 kcal/mol
DOCKED: USER        vdW + Hbond + desolv Energy     =  -6.34 kcal/mol
DOCKED: USER        Electrostatic Energy            =  -0.00 kcal/mol
DOCKED: USER        Moving Ligand-Fixed Receptor    =  -6.34 kcal/mol
DOCKED: USER        Moving Ligand-Moving Receptor   =  +0.00 kcal/mol
DOCKED: USER    (2) Final Total Internal Energy     =  -0.92 kcal/mol
DOCKED: USER    (3) Torsional Free Energy           =  +1.19 kcal/mol
DOCKED: USER    (4) Unbound System's Energy         =  -0.92 kcal/mol
DOCKED: USER
DOCKED: USER
DOCKED: REMARK  Name = 
DOCKED: REMARK  4 active torsions:
DOCKED: REMARK  status: ('A' for Active; 'I' for Inactive)
DOCKED: REMARK    1  A    between atoms: C_7  and  C_8
DOCKED: REMARK    2  A    between atoms: C_8  and  C_9
DOCKED: REMARK    3  A    between atoms: C_9  and  C_10
DOCKED: REMARK    4  A    between atoms: C_11  and  C_12
DOCKED: REMARK                            x       y       z     vdW  Elec       q    Type
DOCKED: REMARK                         _______ _______ _______ _____ _____    ______ ____
DOCKED: USER                              x       y       z     vdW  Elec       q    Type
DOCKED: USER                           _______ _______ _______ _____ _____    ______ ____
DOCKED: ROOT
DOCKED: ATOM      1  C   UNL     1      15.132  22.332  18.379 -0.26 +0.00    -0.026 C  
DOCKED: ATOM      2  C   UNL     1      14.659  22.232  17.131 -0.38 +0.00    -0.004 C  
DOCKED: ENDROOT
DOCKED: BRANCH   2   3
DOCKED: ATOM      3  C   UNL     1      13.403  21.594  16.806 -0.37 -0.00    +0.004 C  
DOCKED: ATOM      4  C   UNL     1      12.226  22.240  16.624 -0.33 +0.00    -0.036 C  
DOCKED: ATOM      5  C   UNL     1      12.150  23.753  16.769 -0.18 +0.01    +0.063 C  
DOCKED: ATOM      6  C   UNL     1      10.808  24.377  16.561 -0.32 +0.00    -0.022 C  
DOCKED: ATOM      7  C   UNL     1       9.705  23.688  16.263 -0.35 -0.00    +0.004 C  
DOCKED: ATOM      8  C   UNL     1       9.757  22.233  16.117 -0.29 +0.00    -0.018 A  
DOCKED: ATOM      9  C   UNL     1       8.564  21.563  15.799 -0.33 -0.00    +0.008 A  
DOCKED: ATOM     10  C   UNL     1       8.544  20.180  15.639 -0.30 -0.00    +0.001 A  
DOCKED: ATOM     11  C   UNL     1       9.716  19.458  15.796 -0.41 -0.00    +0.001 A  
DOCKED: ATOM     12  C   UNL     1      10.909  20.114  16.114 -0.37 -0.00    +0.009 A  
DOCKED: ATOM     13  C   UNL     1      10.961  21.512  16.285 -0.30 +0.00    -0.014 A  
DOCKED: ENDBRANCH   2   3
DOCKED: BRANCH   1  14
DOCKED: ATOM     14  C   UNL     1      16.429  23.036  18.673 -0.20 -0.00    +0.031 C  
DOCKED: BRANCH  14  15
DOCKED: ATOM     15  C   UNL     1      17.051  23.641  17.413 -0.32 -0.00    +0.035 C  
DOCKED: BRANCH  15  22
DOCKED: ATOM     16  C   UNL     1      15.304  25.452  17.876 -0.18 +0.00    +0.031 C  
DOCKED: ATOM     17  C   UNL     1      14.756  26.875  17.747 -0.18 +0.00    +0.008 C  
DOCKED: ATOM     18  C   UNL     1      15.834  27.951  17.730 -0.14 +0.00    +0.027 C  
DOCKED: ATOM     19  C   UNL     1      16.446  28.078  16.371 -0.23 -0.00    -0.027 C  
DOCKED: ATOM     20  C   UNL     1      16.933  27.067  15.641 -0.29 -0.00    -0.004 C  
DOCKED: ATOM     21  C   UNL     1      17.134  25.712  16.089 -0.36 -0.00    -0.001 C  
DOCKED: ATOM     22  C   UNL     1      16.488  25.008  17.038 -0.25 -0.00    -0.069 C  
DOCKED: ENDBRANCH  15  22
DOCKED: ENDBRANCH  14  15
DOCKED: ENDBRANCH   1  14
DOCKED: TORSDOF 4
DOCKED: TER
DOCKED: ENDMDL
________________________________________________________________________________


    FINAL DOCKED STATE:
    ________________________


Run:   11 / 50
Time taken for this run:   0.000s

DOCKED: MODEL        11
DOCKED: USER    Run = 11
DOCKED: USER
DOCKED: USER    Estimated Free Energy of Binding    =  -4.84 kcal/mol  [=(1)+(2)+(3)-(4)]
DOCKED: USER
DOCKED: USER    (1) Final Intermolecular Energy     =  -6.04 kcal/mol
DOCKED: USER        vdW + Hbond + desolv Energy     =  -6.03 kcal/mol
DOCKED: USER        Electrostatic Energy            =  -0.00 kcal/mol
DOCKED: USER        Moving Ligand-Fixed Receptor    =  -6.04 kcal/mol
DOCKED: USER        Moving Ligand-Moving Receptor   =  +0.00 kcal/mol
DOCKED: USER    (2) Final Total Internal Energy     =  -1.20 kcal/mol
DOCKED: USER    (3) Torsional Free Energy           =  +1.19 kcal/mol
DOCKED: USER    (4) Unbound System's Energy         =  -1.20 kcal/mol
DOCKED: USER
DOCKED: USER
DOCKED: REMARK  Name = 
DOCKED: REMARK  4 active torsions:
DOCKED: REMARK  status: ('A' for Active; 'I' for Inactive)
DOCKED: REMARK    1  A    between atoms: C_7  and  C_8
DOCKED: REMARK    2  A    between atoms: C_8  and  C_9
DOCKED: REMARK    3  A    between atoms: C_9  and  C_10
DOCKED: REMARK    4  A    between atoms: C_11  and  C_12
DOCKED: REMARK                            x       y       z     vdW  Elec       q    Type
DOCKED: REMARK                         _______ _______ _______ _____ _____    ______ ____
DOCKED: USER                              x       y       z     vdW  Elec       q    Type
DOCKED: USER                           _______ _______ _______ _____ _____    ______ ____
DOCKED: ROOT
DOCKED: ATOM      1  C   UNL     1      11.304  19.917  15.293 -0.43 +0.00    -0.026 C  
DOCKED: ATOM      2  C   UNL     1      10.748  19.717  16.494 -0.37 +0.00    -0.004 C  
DOCKED: ENDROOT
DOCKED: BRANCH   2   3
DOCKED: ATOM      3  C   UNL     1       9.495  19.020  16.684 -0.34 -0.00    +0.004 C  
DOCKED: ATOM      4  C   UNL     1       8.267  19.569  16.530 -0.31 +0.00    -0.036 C  
DOCKED: ATOM      5  C   UNL     1       8.124  21.031  16.136 -0.31 -0.01    +0.063 C  
DOCKED: ATOM      6  C   UNL     1       6.729  21.552  16.000 -0.30 +0.01    -0.022 C  
DOCKED: ATOM      7  C   UNL     1       5.637  20.815  16.202 -0.18 -0.00    +0.004 C  
DOCKED: ATOM      8  C   UNL     1       5.752  19.406  16.579 -0.11 +0.00    -0.018 A  
DOCKED: ATOM      9  C   UNL     1       4.565  18.680  16.775 -0.17 -0.00    +0.008 A  
DOCKED: ATOM     10  C   UNL     1       4.604  17.334  17.129 -0.21 -0.00    +0.001 A  
DOCKED: ATOM     11  C   UNL     1       5.828  16.704  17.289 -0.25 -0.00    +0.001 A  
DOCKED: ATOM     12  C   UNL     1       7.015  17.418  17.098 -0.16 -0.00    +0.009 A  
DOCKED: ATOM     13  C   UNL     1       7.009  18.782  16.743 -0.24 +0.00    -0.014 A  
DOCKED: ENDBRANCH   2   3
DOCKED: BRANCH   1  14
DOCKED: ATOM     14  C   UNL     1      12.627  20.619  15.149 -0.37 -0.00    +0.031 C  
DOCKED: BRANCH  14  15
DOCKED: ATOM     15  C   UNL     1      12.934  21.517  16.349 -0.40 -0.00    +0.035 C  
DOCKED: BRANCH  15  22
DOCKED: ATOM     16  C   UNL     1      11.152  22.986  15.249 -0.32 +0.00    +0.031 C  
DOCKED: ATOM     17  C   UNL     1      10.049  24.046  15.293 -0.42 -0.00    +0.008 C  
DOCKED: ATOM     18  C   UNL     1       9.195  23.994  16.553 -0.29 -0.01    +0.027 C  
DOCKED: ATOM     19  C   UNL     1       9.880  24.679  17.694 -0.21 +0.01    -0.027 C  
DOCKED: ATOM     20  C   UNL     1      11.135  24.449  18.097 -0.16 +0.00    -0.004 C  
DOCKED: ATOM     21  C   UNL     1      11.994  23.384  17.645 -0.20 +0.00    -0.001 C  
DOCKED: ATOM     22  C   UNL     1      12.017  22.730  16.469 -0.30 -0.00    -0.069 C  
DOCKED: ENDBRANCH  15  22
DOCKED: ENDBRANCH  14  15
DOCKED: ENDBRANCH   1  14
DOCKED: TORSDOF 4
DOCKED: TER
DOCKED: ENDMDL
________________________________________________________________________________


    FINAL DOCKED STATE:
    ________________________


Run:   12 / 50
Time taken for this run:   0.000s

DOCKED: MODEL        12
DOCKED: USER    Run = 12
DOCKED: USER
DOCKED: USER    Estimated Free Energy of Binding    =  -5.43 kcal/mol  [=(1)+(2)+(3)-(4)]
DOCKED: USER
DOCKED: USER    (1) Final Intermolecular Energy     =  -6.62 kcal/mol
DOCKED: USER        vdW + Hbond + desolv Energy     =  -6.63 kcal/mol
DOCKED: USER        Electrostatic Energy            =  +0.01 kcal/mol
DOCKED: USER        Moving Ligand-Fixed Receptor    =  -6.62 kcal/mol
DOCKED: USER        Moving Ligand-Moving Receptor   =  +0.00 kcal/mol
DOCKED: USER    (2) Final Total Internal Energy     =  -0.51 kcal/mol
DOCKED: USER    (3) Torsional Free Energy           =  +1.19 kcal/mol
DOCKED: USER    (4) Unbound System's Energy         =  -0.51 kcal/mol
DOCKED: USER
DOCKED: USER
DOCKED: REMARK  Name = 
DOCKED: REMARK  4 active torsions:
DOCKED: REMARK  status: ('A' for Active; 'I' for Inactive)
DOCKED: REMARK    1  A    between atoms: C_7  and  C_8
DOCKED: REMARK    2  A    between atoms: C_8  and  C_9
DOCKED: REMARK    3  A    between atoms: C_9  and  C_10
DOCKED: REMARK    4  A    between atoms: C_11  and  C_12
DOCKED: REMARK                            x       y       z     vdW  Elec       q    Type
DOCKED: REMARK                         _______ _______ _______ _____ _____    ______ ____
DOCKED: USER                              x       y       z     vdW  Elec       q    Type
DOCKED: USER                           _______ _______ _______ _____ _____    ______ ____
DOCKED: ROOT
DOCKED: ATOM      1  C   UNL     1      14.767  22.042  17.216 -0.36 +0.01    -0.026 C  
DOCKED: ATOM      2  C   UNL     1      15.395  23.181  17.530 -0.33 +0.00    -0.004 C  
DOCKED: ENDROOT
DOCKED: BRANCH   2   3
DOCKED: ATOM      3  C   UNL     1      16.796  23.418  17.260 -0.31 -0.00    +0.004 C  
DOCKED: ATOM      4  C   UNL     1      17.325  24.603  16.874 -0.32 +0.00    -0.036 C  
DOCKED: ATOM      5  C   UNL     1      16.430  25.818  16.682 -0.24 +0.01    +0.063 C  
DOCKED: ATOM      6  C   UNL     1      17.101  27.080  16.244 -0.30 -0.00    -0.022 C  
DOCKED: ATOM      7  C   UNL     1      18.411  27.187  16.020 -0.23 +0.00    +0.004 C  
DOCKED: ATOM      8  C   UNL     1      19.291  26.031  16.201 -0.21 +0.00    -0.018 A  
DOCKED: ATOM      9  C   UNL     1      20.663  26.206  15.953 -0.17 -0.00    +0.008 A  
DOCKED: ATOM     10  C   UNL     1      21.556  25.149  16.112 -0.16 -0.00    +0.001 A  
DOCKED: ATOM     11  C   UNL     1      21.084  23.911  16.520 -0.23 -0.00    +0.001 A  
DOCKED: ATOM     12  C   UNL     1      19.720  23.726  16.767 -0.20 -0.00    +0.009 A  
DOCKED: ATOM     13  C   UNL     1      18.791  24.775  16.613 -0.21 +0.00    -0.014 A  
DOCKED: ENDBRANCH   2   3
DOCKED: BRANCH   1  14
DOCKED: ATOM     14  C   UNL     1      13.298  21.856  17.486 -0.32 -0.00    +0.031 C  
DOCKED: BRANCH  14  15
DOCKED: ATOM     15  C   UNL     1      12.430  22.597  16.467 -0.31 +0.00    +0.035 C  
DOCKED: BRANCH  15  22
DOCKED: ATOM     16  C   UNL     1      11.553  20.340  15.643 -0.44 -0.00    +0.031 C  
DOCKED: ATOM     17  C   UNL     1      10.424  19.361  15.311 -0.48 -0.00    +0.008 C  
DOCKED: ATOM     18  C   UNL     1       9.229  19.456  16.250 -0.38 -0.00    +0.027 C  
DOCKED: ATOM     19  C   UNL     1       8.335  20.594  15.870 -0.34 +0.00    -0.027 C  
DOCKED: ATOM     20  C   UNL     1       8.731  21.855  15.658 -0.39 +0.00    -0.004 C  
DOCKED: ATOM     21  C   UNL     1      10.037  22.396  15.935 -0.36 +0.00    -0.001 C  
DOCKED: ATOM     22  C   UNL     1      11.239  21.790  15.961 -0.34 +0.00    -0.069 C  
DOCKED: ENDBRANCH  15  22
DOCKED: ENDBRANCH  14  15
DOCKED: ENDBRANCH   1  14
DOCKED: TORSDOF 4
DOCKED: TER
DOCKED: ENDMDL
________________________________________________________________________________


    FINAL DOCKED STATE:
    ________________________


Run:   13 / 50
Time taken for this run:   0.000s

DOCKED: MODEL        13
DOCKED: USER    Run = 13
DOCKED: USER
DOCKED: USER    Estimated Free Energy of Binding    =  -5.13 kcal/mol  [=(1)+(2)+(3)-(4)]
DOCKED: USER
DOCKED: USER    (1) Final Intermolecular Energy     =  -6.33 kcal/mol
DOCKED: USER        vdW + Hbond + desolv Energy     =  -6.33 kcal/mol
DOCKED: USER        Electrostatic Energy            =  +0.00 kcal/mol
DOCKED: USER        Moving Ligand-Fixed Receptor    =  -6.33 kcal/mol
DOCKED: USER        Moving Ligand-Moving Receptor   =  +0.00 kcal/mol
DOCKED: USER    (2) Final Total Internal Energy     =  -0.91 kcal/mol
DOCKED: USER    (3) Torsional Free Energy           =  +1.19 kcal/mol
DOCKED: USER    (4) Unbound System's Energy         =  -0.91 kcal/mol
DOCKED: USER
DOCKED: USER
DOCKED: REMARK  Name = 
DOCKED: REMARK  4 active torsions:
DOCKED: REMARK  status: ('A' for Active; 'I' for Inactive)
DOCKED: REMARK    1  A    between atoms: C_7  and  C_8
DOCKED: REMARK    2  A    between atoms: C_8  and  C_9
DOCKED: REMARK    3  A    between atoms: C_9  and  C_10
DOCKED: REMARK    4  A    between atoms: C_11  and  C_12
DOCKED: REMARK                            x       y       z     vdW  Elec       q    Type
DOCKED: REMARK                         _______ _______ _______ _____ _____    ______ ____
DOCKED: USER                              x       y       z     vdW  Elec       q    Type
DOCKED: USER                           _______ _______ _______ _____ _____    ______ ____
DOCKED: ROOT
DOCKED: ATOM      1  C   UNL     1      14.979  22.496  18.353 -0.27 +0.00    -0.026 C  
DOCKED: ATOM      2  C   UNL     1      14.642  22.114  17.115 -0.38 +0.00    -0.004 C  
DOCKED: ENDROOT
DOCKED: BRANCH   2   3
DOCKED: ATOM      3  C   UNL     1      13.393  21.458  16.797 -0.34 -0.00    +0.004 C  
DOCKED: ATOM      4  C   UNL     1      12.214  22.090  16.587 -0.34 +0.00    -0.036 C  
DOCKED: ATOM      5  C   UNL     1      12.126  23.605  16.688 -0.19 +0.00    +0.063 C  
DOCKED: ATOM      6  C   UNL     1      10.781  24.213  16.451 -0.33 +0.00    -0.022 C  
DOCKED: ATOM      7  C   UNL     1       9.686  23.508  16.164 -0.37 -0.00    +0.004 C  
DOCKED: ATOM      8  C   UNL     1       9.749  22.049  16.060 -0.29 +0.00    -0.018 A  
DOCKED: ATOM      9  C   UNL     1       8.564  21.362  15.751 -0.33 -0.00    +0.008 A  
DOCKED: ATOM     10  C   UNL     1       8.555  19.975  15.631 -0.29 -0.00    +0.001 A  
DOCKED: ATOM     11  C   UNL     1       9.731  19.266  15.819 -0.38 -0.00    +0.001 A  
DOCKED: ATOM     12  C   UNL     1      10.916  19.940  16.128 -0.37 -0.00    +0.009 A  
DOCKED: ATOM     13  C   UNL     1      10.956  21.343  16.259 -0.30 +0.00    -0.014 A  
DOCKED: ENDBRANCH   2   3
DOCKED: BRANCH   1  14
DOCKED: ATOM     14  C   UNL     1      16.276  23.208  18.629 -0.21 -0.00    +0.031 C  
DOCKED: BRANCH  14  15
DOCKED: ATOM     15  C   UNL     1      16.911  23.757  17.350 -0.32 -0.00    +0.035 C  
DOCKED: BRANCH  15  22
DOCKED: ATOM     16  C   UNL     1      15.191  25.616  17.708 -0.17 +0.00    +0.031 C  
DOCKED: ATOM     17  C   UNL     1      14.706  27.062  17.575 -0.18 +0.00    +0.008 C  
DOCKED: ATOM     18  C   UNL     1      15.816  28.098  17.698 -0.14 +0.00    +0.027 C  
DOCKED: ATOM     19  C   UNL     1      16.560  28.244  16.408 -0.22 -0.00    -0.027 C  
DOCKED: ATOM     20  C   UNL     1      17.080  27.238  15.693 -0.28 -0.00    -0.004 C  
DOCKED: ATOM     21  C   UNL     1      17.191  25.864  16.111 -0.37 -0.00    -0.001 C  
DOCKED: ATOM     22  C   UNL     1      16.434  25.155  16.970 -0.24 -0.00    -0.069 C  
DOCKED: ENDBRANCH  15  22
DOCKED: ENDBRANCH  14  15
DOCKED: ENDBRANCH   1  14
DOCKED: TORSDOF 4
DOCKED: TER
DOCKED: ENDMDL
________________________________________________________________________________


    FINAL DOCKED STATE:
    ________________________


Run:   14 / 50
Time taken for this run:   0.000s

DOCKED: MODEL        14
DOCKED: USER    Run = 14
DOCKED: USER
DOCKED: USER    Estimated Free Energy of Binding    =  -5.33 kcal/mol  [=(1)+(2)+(3)-(4)]
DOCKED: USER
DOCKED: USER    (1) Final Intermolecular Energy     =  -6.52 kcal/mol
DOCKED: USER        vdW + Hbond + desolv Energy     =  -6.51 kcal/mol
DOCKED: USER        Electrostatic Energy            =  -0.01 kcal/mol
DOCKED: USER        Moving Ligand-Fixed Receptor    =  -6.52 kcal/mol
DOCKED: USER        Moving Ligand-Moving Receptor   =  +0.00 kcal/mol
DOCKED: USER    (2) Final Total Internal Energy     =  -0.62 kcal/mol
DOCKED: USER    (3) Torsional Free Energy           =  +1.19 kcal/mol
DOCKED: USER    (4) Unbound System's Energy         =  -0.62 kcal/mol
DOCKED: USER
DOCKED: USER
DOCKED: REMARK  Name = 
DOCKED: REMARK  4 active torsions:
DOCKED: REMARK  status: ('A' for Active; 'I' for Inactive)
DOCKED: REMARK    1  A    between atoms: C_7  and  C_8
DOCKED: REMARK    2  A    between atoms: C_8  and  C_9
DOCKED: REMARK    3  A    between atoms: C_9  and  C_10
DOCKED: REMARK    4  A    between atoms: C_11  and  C_12
DOCKED: REMARK                            x       y       z     vdW  Elec       q    Type
DOCKED: REMARK                         _______ _______ _______ _____ _____    ______ ____
DOCKED: USER                              x       y       z     vdW  Elec       q    Type
DOCKED: USER                           _______ _______ _______ _____ _____    ______ ____
DOCKED: ROOT
DOCKED: ATOM      1  C   UNL     1      13.337  22.202  17.171 -0.34 +0.00    -0.026 C  
DOCKED: ATOM      2  C   UNL     1      12.609  22.276  16.051 -0.31 -0.00    -0.004 C  
DOCKED: ENDROOT
DOCKED: BRANCH   2   3
DOCKED: ATOM      3  C   UNL     1      11.186  22.534  16.042 -0.36 -0.00    +0.004 C  
DOCKED: ATOM      4  C   UNL     1      10.223  21.583  16.040 -0.32 +0.00    -0.036 C  
DOCKED: ATOM      5  C   UNL     1      10.599  20.109  16.037 -0.40 -0.01    +0.063 C  
DOCKED: ATOM      6  C   UNL     1       9.469  19.131  16.024 -0.38 +0.00    -0.022 C  
DOCKED: ATOM      7  C   UNL     1       8.182  19.481  16.015 -0.35 -0.00    +0.004 C  
DOCKED: ATOM      8  C   UNL     1       7.798  20.894  16.020 -0.29 +0.00    -0.018 A  
DOCKED: ATOM      9  C   UNL     1       6.427  21.201  16.014 -0.22 -0.00    +0.008 A  
DOCKED: ATOM     10  C   UNL     1       5.994  22.524  16.025 -0.27 -0.00    +0.001 A  
DOCKED: ATOM     11  C   UNL     1       6.927  23.548  16.043 -0.16 -0.00    +0.001 A  
DOCKED: ATOM     12  C   UNL     1       8.293  23.254  16.047 -0.30 -0.00    +0.009 A  
DOCKED: ATOM     13  C   UNL     1       8.763  21.925  16.033 -0.32 +0.00    -0.014 A  
DOCKED: ENDBRANCH   2   3
DOCKED: BRANCH   1  14
DOCKED: ATOM     14  C   UNL     1      14.823  21.966  17.127 -0.34 -0.01    +0.031 C  
DOCKED: BRANCH  14  15
DOCKED: ATOM     15  C   UNL     1      15.554  22.704  18.251 -0.26 -0.01    +0.035 C  
DOCKED: BRANCH  15  22
DOCKED: ATOM     16  C   UNL     1      17.572  23.931  17.269 -0.33 -0.00    +0.031 C  
DOCKED: ATOM     17  C   UNL     1      18.240  25.150  16.627 -0.31 -0.00    +0.008 C  
DOCKED: ATOM     18  C   UNL     1      17.338  25.911  15.664 -0.30 +0.00    +0.027 C  
DOCKED: ATOM     19  C   UNL     1      16.413  26.826  16.404 -0.30 -0.00    -0.027 C  
DOCKED: ATOM     20  C   UNL     1      15.631  26.474  17.432 -0.21 -0.00    -0.004 C  
DOCKED: ATOM     21  C   UNL     1      15.387  25.132  17.897 -0.19 -0.00    -0.001 C  
DOCKED: ATOM     22  C   UNL     1      16.164  24.035  17.827 -0.25 +0.00    -0.069 C  
DOCKED: ENDBRANCH  15  22
DOCKED: ENDBRANCH  14  15
DOCKED: ENDBRANCH   1  14
DOCKED: TORSDOF 4
DOCKED: TER
DOCKED: ENDMDL
________________________________________________________________________________


    FINAL DOCKED STATE:
    ________________________


Run:   15 / 50
Time taken for this run:   0.000s

DOCKED: MODEL        15
DOCKED: USER    Run = 15
DOCKED: USER
DOCKED: USER    Estimated Free Energy of Binding    =  -4.95 kcal/mol  [=(1)+(2)+(3)-(4)]
DOCKED: USER
DOCKED: USER    (1) Final Intermolecular Energy     =  -6.14 kcal/mol
DOCKED: USER        vdW + Hbond + desolv Energy     =  -6.16 kcal/mol
DOCKED: USER        Electrostatic Energy            =  +0.01 kcal/mol
DOCKED: USER        Moving Ligand-Fixed Receptor    =  -6.14 kcal/mol
DOCKED: USER        Moving Ligand-Moving Receptor   =  +0.00 kcal/mol
DOCKED: USER    (2) Final Total Internal Energy     =  -1.06 kcal/mol
DOCKED: USER    (3) Torsional Free Energy           =  +1.19 kcal/mol
DOCKED: USER    (4) Unbound System's Energy         =  -1.06 kcal/mol
DOCKED: USER
DOCKED: USER
DOCKED: REMARK  Name = 
DOCKED: REMARK  4 active torsions:
DOCKED: REMARK  status: ('A' for Active; 'I' for Inactive)
DOCKED: REMARK    1  A    between atoms: C_7  and  C_8
DOCKED: REMARK    2  A    between atoms: C_8  and  C_9
DOCKED: REMARK    3  A    between atoms: C_9  and  C_10
DOCKED: REMARK    4  A    between atoms: C_11  and  C_12
DOCKED: REMARK                            x       y       z     vdW  Elec       q    Type
DOCKED: REMARK                         _______ _______ _______ _____ _____    ______ ____
DOCKED: USER                              x       y       z     vdW  Elec       q    Type
DOCKED: USER                           _______ _______ _______ _____ _____    ______ ____
DOCKED: ROOT
DOCKED: ATOM      1  C   UNL     1      11.650  25.795  17.916 -0.22 +0.00    -0.026 C  
DOCKED: ATOM      2  C   UNL     1      11.091  25.406  16.764 -0.25 -0.00    -0.004 C  
DOCKED: ENDROOT
DOCKED: BRANCH   2   3
DOCKED: ATOM      3  C   UNL     1      10.276  24.217  16.636 -0.32 -0.00    +0.004 C  
DOCKED: ATOM      4  C   UNL     1      10.743  22.982  16.334 -0.32 +0.00    -0.036 C  
DOCKED: ATOM      5  C   UNL     1      12.229  22.762  16.089 -0.25 +0.01    +0.063 C  
DOCKED: ATOM      6  C   UNL     1      12.650  21.368  15.752 -0.47 +0.00    -0.022 C  
DOCKED: ATOM      7  C   UNL     1      11.807  20.338  15.658 -0.40 -0.00    +0.004 C  
DOCKED: ATOM      8  C   UNL     1      10.375  20.528  15.892 -0.32 +0.00    -0.018 A  
DOCKED: ATOM      9  C   UNL     1       9.538  19.405  15.782 -0.38 -0.00    +0.008 A  
DOCKED: ATOM     10  C   UNL     1       8.167  19.515  15.998 -0.30 -0.00    +0.001 A  
DOCKED: ATOM     11  C   UNL     1       7.624  20.748  16.326 -0.26 -0.00    +0.001 A  
DOCKED: ATOM     12  C   UNL     1       8.447  21.872  16.436 -0.27 -0.00    +0.009 A  
DOCKED: ATOM     13  C   UNL     1       9.838  21.793  16.220 -0.27 +0.00    -0.014 A  
DOCKED: ENDBRANCH   2   3
DOCKED: BRANCH   1  14
DOCKED: ATOM     14  C   UNL     1      12.461  27.059  18.007 -0.20 +0.00    +0.031 C  
DOCKED: BRANCH  14  15
DOCKED: ATOM     15  C   UNL     1      13.836  26.814  18.630 -0.12 -0.00    +0.035 C  
DOCKED: BRANCH  15  22
DOCKED: ATOM     16  C   UNL     1      15.720  26.617  16.912 -0.21 +0.01    +0.031 C  
DOCKED: ATOM     17  C   UNL     1      16.813  25.835  16.177 -0.32 +0.00    +0.008 C  
DOCKED: ATOM     18  C   UNL     1      17.533  24.816  17.049 -0.30 -0.00    +0.027 C  
DOCKED: ATOM     19  C   UNL     1      16.735  23.556  17.174 -0.31 +0.00    -0.027 C  
DOCKED: ATOM     20  C   UNL     1      15.444  23.485  17.524 -0.31 +0.00    -0.004 C  
DOCKED: ATOM     21  C   UNL     1      14.637  24.568  18.026 -0.18 -0.00    -0.001 C  
DOCKED: ATOM     22  C   UNL     1      14.735  25.894  17.811 -0.16 -0.01    -0.069 C  
DOCKED: ENDBRANCH  15  22
DOCKED: ENDBRANCH  14  15
DOCKED: ENDBRANCH   1  14
DOCKED: TORSDOF 4
DOCKED: TER
DOCKED: ENDMDL
________________________________________________________________________________


    FINAL DOCKED STATE:
    ________________________


Run:   16 / 50
Time taken for this run:   0.000s

DOCKED: MODEL        16
DOCKED: USER    Run = 16
DOCKED: USER
DOCKED: USER    Estimated Free Energy of Binding    =  -5.16 kcal/mol  [=(1)+(2)+(3)-(4)]
DOCKED: USER
DOCKED: USER    (1) Final Intermolecular Energy     =  -6.35 kcal/mol
DOCKED: USER        vdW + Hbond + desolv Energy     =  -6.35 kcal/mol
DOCKED: USER        Electrostatic Energy            =  +0.00 kcal/mol
DOCKED: USER        Moving Ligand-Fixed Receptor    =  -6.35 kcal/mol
DOCKED: USER        Moving Ligand-Moving Receptor   =  +0.00 kcal/mol
DOCKED: USER    (2) Final Total Internal Energy     =  -0.91 kcal/mol
DOCKED: USER    (3) Torsional Free Energy           =  +1.19 kcal/mol
DOCKED: USER    (4) Unbound System's Energy         =  -0.91 kcal/mol
DOCKED: USER
DOCKED: USER
DOCKED: REMARK  Name = 
DOCKED: REMARK  4 active torsions:
DOCKED: REMARK  status: ('A' for Active; 'I' for Inactive)
DOCKED: REMARK    1  A    between atoms: C_7  and  C_8
DOCKED: REMARK    2  A    between atoms: C_8  and  C_9
DOCKED: REMARK    3  A    between atoms: C_9  and  C_10
DOCKED: REMARK    4  A    between atoms: C_11  and  C_12
DOCKED: REMARK                            x       y       z     vdW  Elec       q    Type
DOCKED: REMARK                         _______ _______ _______ _____ _____    ______ ____
DOCKED: USER                              x       y       z     vdW  Elec       q    Type
DOCKED: USER                           _______ _______ _______ _____ _____    ______ ____
DOCKED: ROOT
DOCKED: ATOM      1  C   UNL     1      15.077  22.301  18.389 -0.27 +0.00    -0.026 C  
DOCKED: ATOM      2  C   UNL     1      14.610  22.165  17.142 -0.39 +0.00    -0.004 C  
DOCKED: ENDROOT
DOCKED: BRANCH   2   3
DOCKED: ATOM      3  C   UNL     1      13.376  21.483  16.824 -0.35 -0.00    +0.004 C  
DOCKED: ATOM      4  C   UNL     1      12.189  22.090  16.589 -0.34 +0.00    -0.036 C  
DOCKED: ATOM      5  C   UNL     1      12.075  23.606  16.658 -0.19 +0.00    +0.063 C  
DOCKED: ATOM      6  C   UNL     1      10.723  24.186  16.394 -0.33 +0.00    -0.022 C  
DOCKED: ATOM      7  C   UNL     1       9.642  23.458  16.110 -0.37 -0.00    +0.004 C  
DOCKED: ATOM      8  C   UNL     1       9.731  21.998  16.036 -0.30 +0.00    -0.018 A  
DOCKED: ATOM      9  C   UNL     1       8.560  21.285  15.729 -0.33 -0.00    +0.008 A  
DOCKED: ATOM     10  C   UNL     1       8.576  19.896  15.637 -0.30 -0.00    +0.001 A  
DOCKED: ATOM     11  C   UNL     1       9.761  19.211  15.851 -0.38 -0.00    +0.001 A  
DOCKED: ATOM     12  C   UNL     1      10.932  19.910  16.159 -0.37 -0.00    +0.009 A  
DOCKED: ATOM     13  C   UNL     1      10.947  21.316  16.262 -0.30 +0.00    -0.014 A  
DOCKED: ENDBRANCH   2   3
DOCKED: BRANCH   1  14
DOCKED: ATOM     14  C   UNL     1      16.350  23.051  18.673 -0.20 -0.00    +0.031 C  
DOCKED: BRANCH  14  15
DOCKED: ATOM     15  C   UNL     1      16.975  23.622  17.399 -0.32 -0.00    +0.035 C  
DOCKED: BRANCH  15  22
DOCKED: ATOM     16  C   UNL     1      15.236  25.454  17.801 -0.17 +0.00    +0.031 C  
DOCKED: ATOM     17  C   UNL     1      14.715  26.887  17.662 -0.18 +0.00    +0.008 C  
DOCKED: ATOM     18  C   UNL     1      15.808  27.947  17.706 -0.14 +0.00    +0.027 C  
DOCKED: ATOM     19  C   UNL     1      16.484  28.078  16.378 -0.23 -0.00    -0.027 C  
DOCKED: ATOM     20  C   UNL     1      16.989  27.067  15.660 -0.29 -0.00    -0.004 C  
DOCKED: ATOM     21  C   UNL     1      17.149  25.705  16.102 -0.36 -0.00    -0.001 C  
DOCKED: ATOM     22  C   UNL     1      16.451  25.001  17.013 -0.24 -0.00    -0.069 C  
DOCKED: ENDBRANCH  15  22
DOCKED: ENDBRANCH  14  15
DOCKED: ENDBRANCH   1  14
DOCKED: TORSDOF 4
DOCKED: TER
DOCKED: ENDMDL
________________________________________________________________________________


    FINAL DOCKED STATE:
    ________________________


Run:   17 / 50
Time taken for this run:   0.000s

DOCKED: MODEL        17
DOCKED: USER    Run = 17
DOCKED: USER
DOCKED: USER    Estimated Free Energy of Binding    =  -4.97 kcal/mol  [=(1)+(2)+(3)-(4)]
DOCKED: USER
DOCKED: USER    (1) Final Intermolecular Energy     =  -6.16 kcal/mol
DOCKED: USER        vdW + Hbond + desolv Energy     =  -6.17 kcal/mol
DOCKED: USER        Electrostatic Energy            =  +0.01 kcal/mol
DOCKED: USER        Moving Ligand-Fixed Receptor    =  -6.16 kcal/mol
DOCKED: USER        Moving Ligand-Moving Receptor   =  +0.00 kcal/mol
DOCKED: USER    (2) Final Total Internal Energy     =  -1.02 kcal/mol
DOCKED: USER    (3) Torsional Free Energy           =  +1.19 kcal/mol
DOCKED: USER    (4) Unbound System's Energy         =  -1.02 kcal/mol
DOCKED: USER
DOCKED: USER
DOCKED: REMARK  Name = 
DOCKED: REMARK  4 active torsions:
DOCKED: REMARK  status: ('A' for Active; 'I' for Inactive)
DOCKED: REMARK    1  A    between atoms: C_7  and  C_8
DOCKED: REMARK    2  A    between atoms: C_8  and  C_9
DOCKED: REMARK    3  A    between atoms: C_9  and  C_10
DOCKED: REMARK    4  A    between atoms: C_11  and  C_12
DOCKED: REMARK                            x       y       z     vdW  Elec       q    Type
DOCKED: REMARK                         _______ _______ _______ _____ _____    ______ ____
DOCKED: USER                              x       y       z     vdW  Elec       q    Type
DOCKED: USER                           _______ _______ _______ _____ _____    ______ ____
DOCKED: ROOT
DOCKED: ATOM      1  C   UNL     1      11.441  25.658  17.851 -0.22 +0.00    -0.026 C  
DOCKED: ATOM      2  C   UNL     1      11.126  25.054  16.698 -0.27 -0.00    -0.004 C  
DOCKED: ENDROOT
DOCKED: BRANCH   2   3
DOCKED: ATOM      3  C   UNL     1      10.259  23.901  16.615 -0.32 -0.00    +0.004 C  
DOCKED: ATOM      4  C   UNL     1      10.645  22.663  16.224 -0.32 +0.00    -0.036 C  
DOCKED: ATOM      5  C   UNL     1      12.088  22.401  15.818 -0.32 +0.00    +0.063 C  
DOCKED: ATOM      6  C   UNL     1      12.418  21.007  15.391 -0.49 +0.00    -0.022 C  
DOCKED: ATOM      7  C   UNL     1      11.533  20.012  15.349 -0.45 -0.00    +0.004 C  
DOCKED: ATOM      8  C   UNL     1      10.140  20.241  15.738 -0.34 +0.00    -0.018 A  
DOCKED: ATOM      9  C   UNL     1       9.254  19.153  15.676 -0.30 -0.00    +0.008 A  
DOCKED: ATOM     10  C   UNL     1       7.918  19.301  16.038 -0.23 -0.00    +0.001 A  
DOCKED: ATOM     11  C   UNL     1       7.458  20.538  16.462 -0.24 -0.00    +0.001 A  
DOCKED: ATOM     12  C   UNL     1       8.331  21.629  16.525 -0.25 -0.00    +0.009 A  
DOCKED: ATOM     13  C   UNL     1       9.688  21.511  16.164 -0.28 +0.00    -0.014 A  
DOCKED: ENDBRANCH   2   3
DOCKED: BRANCH   1  14
DOCKED: ATOM     14  C   UNL     1      12.320  26.878  17.884 -0.21 +0.00    +0.031 C  
DOCKED: BRANCH  14  15
DOCKED: ATOM     15  C   UNL     1      13.644  26.611  18.602 -0.13 -0.00    +0.035 C  
DOCKED: BRANCH  15  22
DOCKED: ATOM     16  C   UNL     1      15.713  26.379  17.116 -0.21 +0.00    +0.031 C  
DOCKED: ATOM     17  C   UNL     1      16.842  25.566  16.475 -0.33 +0.00    +0.008 C  
DOCKED: ATOM     18  C   UNL     1      17.388  24.461  17.368 -0.29 -0.00    +0.027 C  
DOCKED: ATOM     19  C   UNL     1      16.509  23.250  17.323 -0.30 +0.00    -0.027 C  
DOCKED: ATOM     20  C   UNL     1      15.184  23.245  17.510 -0.32 +0.00    -0.004 C  
DOCKED: ATOM     21  C   UNL     1      14.384  24.351  17.971 -0.19 -0.00    -0.001 C  
DOCKED: ATOM     22  C   UNL     1      14.584  25.677  17.846 -0.15 -0.01    -0.069 C  
DOCKED: ENDBRANCH  15  22
DOCKED: ENDBRANCH  14  15
DOCKED: ENDBRANCH   1  14
DOCKED: TORSDOF 4
DOCKED: TER
DOCKED: ENDMDL
________________________________________________________________________________


    FINAL DOCKED STATE:
    ________________________


Run:   18 / 50
Time taken for this run:   0.000s

DOCKED: MODEL        18
DOCKED: USER    Run = 18
DOCKED: USER
DOCKED: USER    Estimated Free Energy of Binding    =  -4.97 kcal/mol  [=(1)+(2)+(3)-(4)]
DOCKED: USER
DOCKED: USER    (1) Final Intermolecular Energy     =  -6.16 kcal/mol
DOCKED: USER        vdW + Hbond + desolv Energy     =  -6.17 kcal/mol
DOCKED: USER        Electrostatic Energy            =  +0.02 kcal/mol
DOCKED: USER        Moving Ligand-Fixed Receptor    =  -6.16 kcal/mol
DOCKED: USER        Moving Ligand-Moving Receptor   =  +0.00 kcal/mol
DOCKED: USER    (2) Final Total Internal Energy     =  -1.03 kcal/mol
DOCKED: USER    (3) Torsional Free Energy           =  +1.19 kcal/mol
DOCKED: USER    (4) Unbound System's Energy         =  -1.03 kcal/mol
DOCKED: USER
DOCKED: USER
DOCKED: REMARK  Name = 
DOCKED: REMARK  4 active torsions:
DOCKED: REMARK  status: ('A' for Active; 'I' for Inactive)
DOCKED: REMARK    1  A    between atoms: C_7  and  C_8
DOCKED: REMARK    2  A    between atoms: C_8  and  C_9
DOCKED: REMARK    3  A    between atoms: C_9  and  C_10
DOCKED: REMARK    4  A    between atoms: C_11  and  C_12
DOCKED: REMARK                            x       y       z     vdW  Elec       q    Type
DOCKED: REMARK                         _______ _______ _______ _____ _____    ______ ____
DOCKED: USER                              x       y       z     vdW  Elec       q    Type
DOCKED: USER                           _______ _______ _______ _____ _____    ______ ____
DOCKED: ROOT
DOCKED: ATOM      1  C   UNL     1      11.405  25.698  17.831 -0.22 +0.00    -0.026 C  
DOCKED: ATOM      2  C   UNL     1      11.147  25.055  16.686 -0.26 -0.00    -0.004 C  
DOCKED: ENDROOT
DOCKED: BRANCH   2   3
DOCKED: ATOM      3  C   UNL     1      10.277  23.903  16.599 -0.32 -0.00    +0.004 C  
DOCKED: ATOM      4  C   UNL     1      10.661  22.665  16.208 -0.33 +0.00    -0.036 C  
DOCKED: ATOM      5  C   UNL     1      12.105  22.400  15.808 -0.32 +0.00    +0.063 C  
DOCKED: ATOM      6  C   UNL     1      12.434  21.005  15.381 -0.49 +0.00    -0.022 C  
DOCKED: ATOM      7  C   UNL     1      11.546  20.012  15.336 -0.45 -0.00    +0.004 C  
DOCKED: ATOM      8  C   UNL     1      10.152  20.245  15.719 -0.34 +0.00    -0.018 A  
DOCKED: ATOM      9  C   UNL     1       9.263  19.159  15.654 -0.30 -0.00    +0.008 A  
DOCKED: ATOM     10  C   UNL     1       7.926  19.311  16.010 -0.23 -0.00    +0.001 A  
DOCKED: ATOM     11  C   UNL     1       7.468  20.548  16.433 -0.25 -0.00    +0.001 A  
DOCKED: ATOM     12  C   UNL     1       8.343  21.636  16.500 -0.26 -0.00    +0.009 A  
DOCKED: ATOM     13  C   UNL     1       9.702  21.515  16.144 -0.28 +0.00    -0.014 A  
DOCKED: ENDBRANCH   2   3
DOCKED: BRANCH   1  14
DOCKED: ATOM     14  C   UNL     1      12.291  26.914  17.866 -0.21 +0.00    +0.031 C  
DOCKED: BRANCH  14  15
DOCKED: ATOM     15  C   UNL     1      13.610  26.642  18.591 -0.13 -0.00    +0.035 C  
DOCKED: BRANCH  15  22
DOCKED: ATOM     16  C   UNL     1      15.687  26.386  17.120 -0.21 +0.00    +0.031 C  
DOCKED: ATOM     17  C   UNL     1      16.812  25.561  16.491 -0.32 +0.00    +0.008 C  
DOCKED: ATOM     18  C   UNL     1      17.342  24.453  17.391 -0.29 -0.00    +0.027 C  
DOCKED: ATOM     19  C   UNL     1      16.452  23.250  17.343 -0.31 +0.00    -0.027 C  
DOCKED: ATOM     20  C   UNL     1      15.125  23.258  17.521 -0.31 +0.00    -0.004 C  
DOCKED: ATOM     21  C   UNL     1      14.333  24.373  17.973 -0.19 -0.00    -0.001 C  
DOCKED: ATOM     22  C   UNL     1      14.546  25.696  17.845 -0.15 -0.01    -0.069 C  
DOCKED: ENDBRANCH  15  22
DOCKED: ENDBRANCH  14  15
DOCKED: ENDBRANCH   1  14
DOCKED: TORSDOF 4
DOCKED: TER
DOCKED: ENDMDL
________________________________________________________________________________


    FINAL DOCKED STATE:
    ________________________


Run:   19 / 50
Time taken for this run:   0.000s

DOCKED: MODEL        19
DOCKED: USER    Run = 19
DOCKED: USER
DOCKED: USER    Estimated Free Energy of Binding    =  -5.15 kcal/mol  [=(1)+(2)+(3)-(4)]
DOCKED: USER
DOCKED: USER    (1) Final Intermolecular Energy     =  -6.34 kcal/mol
DOCKED: USER        vdW + Hbond + desolv Energy     =  -6.34 kcal/mol
DOCKED: USER        Electrostatic Energy            =  +0.00 kcal/mol
DOCKED: USER        Moving Ligand-Fixed Receptor    =  -6.34 kcal/mol
DOCKED: USER        Moving Ligand-Moving Receptor   =  +0.00 kcal/mol
DOCKED: USER    (2) Final Total Internal Energy     =  -0.89 kcal/mol
DOCKED: USER    (3) Torsional Free Energy           =  +1.19 kcal/mol
DOCKED: USER    (4) Unbound System's Energy         =  -0.89 kcal/mol
DOCKED: USER
DOCKED: USER
DOCKED: REMARK  Name = 
DOCKED: REMARK  4 active torsions:
DOCKED: REMARK  status: ('A' for Active; 'I' for Inactive)
DOCKED: REMARK    1  A    between atoms: C_7  and  C_8
DOCKED: REMARK    2  A    between atoms: C_8  and  C_9
DOCKED: REMARK    3  A    between atoms: C_9  and  C_10
DOCKED: REMARK    4  A    between atoms: C_11  and  C_12
DOCKED: REMARK                            x       y       z     vdW  Elec       q    Type
DOCKED: REMARK                         _______ _______ _______ _____ _____    ______ ____
DOCKED: USER                              x       y       z     vdW  Elec       q    Type
DOCKED: USER                           _______ _______ _______ _____ _____    ______ ____
DOCKED: ROOT
DOCKED: ATOM      1  C   UNL     1      14.987  22.448  18.302 -0.28 +0.00    -0.026 C  
DOCKED: ATOM      2  C   UNL     1      14.558  22.201  17.059 -0.36 +0.00    -0.004 C  
DOCKED: ENDROOT
DOCKED: BRANCH   2   3
DOCKED: ATOM      3  C   UNL     1      13.333  21.490  16.766 -0.35 -0.00    +0.004 C  
DOCKED: ATOM      4  C   UNL     1      12.135  22.071  16.524 -0.34 +0.00    -0.036 C  
DOCKED: ATOM      5  C   UNL     1      11.996  23.586  16.555 -0.20 +0.01    +0.063 C  
DOCKED: ATOM      6  C   UNL     1      10.632  24.137  16.286 -0.34 +0.00    -0.022 C  
DOCKED: ATOM      7  C   UNL     1       9.563  23.383  16.027 -0.38 -0.00    +0.004 C  
DOCKED: ATOM      8  C   UNL     1       9.675  21.924  15.989 -0.30 +0.00    -0.018 A  
DOCKED: ATOM      9  C   UNL     1       8.515  21.184  15.708 -0.33 -0.00    +0.008 A  
DOCKED: ATOM     10  C   UNL     1       8.554  19.794  15.651 -0.29 -0.00    +0.001 A  
DOCKED: ATOM     11  C   UNL     1       9.752  19.134  15.874 -0.37 -0.00    +0.001 A  
DOCKED: ATOM     12  C   UNL     1      10.912  19.861  16.157 -0.37 -0.00    +0.009 A  
DOCKED: ATOM     13  C   UNL     1      10.905  21.269  16.225 -0.30 +0.00    -0.014 A  
DOCKED: ENDBRANCH   2   3
DOCKED: BRANCH   1  14
DOCKED: ATOM     14  C   UNL     1      16.251  23.224  18.557 -0.22 -0.00    +0.031 C  
DOCKED: BRANCH  14  15
DOCKED: ATOM     15  C   UNL     1      16.871  23.751  17.261 -0.32 -0.00    +0.035 C  
DOCKED: BRANCH  15  22
DOCKED: ATOM     16  C   UNL     1      15.182  25.640  17.615 -0.17 +0.00    +0.031 C  
DOCKED: ATOM     17  C   UNL     1      14.727  27.096  17.489 -0.18 +0.00    +0.008 C  
DOCKED: ATOM     18  C   UNL     1      15.855  28.109  17.632 -0.14 +0.00    +0.027 C  
DOCKED: ATOM     19  C   UNL     1      16.616  28.251  16.351 -0.22 -0.00    -0.027 C  
DOCKED: ATOM     20  C   UNL     1      17.124  27.240  15.634 -0.27 -0.00    -0.004 C  
DOCKED: ATOM     21  C   UNL     1      17.204  25.861  16.042 -0.38 -0.00    -0.001 C  
DOCKED: ATOM     22  C   UNL     1      16.425  25.161  16.887 -0.23 -0.00    -0.069 C  
DOCKED: ENDBRANCH  15  22
DOCKED: ENDBRANCH  14  15
DOCKED: ENDBRANCH   1  14
DOCKED: TORSDOF 4
DOCKED: TER
DOCKED: ENDMDL
________________________________________________________________________________


    FINAL DOCKED STATE:
    ________________________


Run:   20 / 50
Time taken for this run:   0.000s

DOCKED: MODEL        20
DOCKED: USER    Run = 20
DOCKED: USER
DOCKED: USER    Estimated Free Energy of Binding    =  -5.16 kcal/mol  [=(1)+(2)+(3)-(4)]
DOCKED: USER
DOCKED: USER    (1) Final Intermolecular Energy     =  -6.35 kcal/mol
DOCKED: USER        vdW + Hbond + desolv Energy     =  -6.35 kcal/mol
DOCKED: USER        Electrostatic Energy            =  +0.00 kcal/mol
DOCKED: USER        Moving Ligand-Fixed Receptor    =  -6.35 kcal/mol
DOCKED: USER        Moving Ligand-Moving Receptor   =  +0.00 kcal/mol
DOCKED: USER    (2) Final Total Internal Energy     =  -0.90 kcal/mol
DOCKED: USER    (3) Torsional Free Energy           =  +1.19 kcal/mol
DOCKED: USER    (4) Unbound System's Energy         =  -0.90 kcal/mol
DOCKED: USER
DOCKED: USER
DOCKED: REMARK  Name = 
DOCKED: REMARK  4 active torsions:
DOCKED: REMARK  status: ('A' for Active; 'I' for Inactive)
DOCKED: REMARK    1  A    between atoms: C_7  and  C_8
DOCKED: REMARK    2  A    between atoms: C_8  and  C_9
DOCKED: REMARK    3  A    between atoms: C_9  and  C_10
DOCKED: REMARK    4  A    between atoms: C_11  and  C_12
DOCKED: REMARK                            x       y       z     vdW  Elec       q    Type
DOCKED: REMARK                         _______ _______ _______ _____ _____    ______ ____
DOCKED: USER                              x       y       z     vdW  Elec       q    Type
DOCKED: USER                           _______ _______ _______ _____ _____    ______ ____
DOCKED: ROOT
DOCKED: ATOM      1  C   UNL     1      15.114  22.387  18.363 -0.27 +0.00    -0.026 C  
DOCKED: ATOM      2  C   UNL     1      14.641  22.245  17.119 -0.37 +0.00    -0.004 C  
DOCKED: ENDROOT
DOCKED: BRANCH   2   3
DOCKED: ATOM      3  C   UNL     1      13.426  21.527  16.807 -0.35 -0.00    +0.004 C  
DOCKED: ATOM      4  C   UNL     1      12.221  22.101  16.573 -0.34 +0.00    -0.036 C  
DOCKED: ATOM      5  C   UNL     1      12.065  23.613  16.639 -0.19 +0.01    +0.063 C  
DOCKED: ATOM      6  C   UNL     1      10.696  24.154  16.378 -0.34 +0.00    -0.022 C  
DOCKED: ATOM      7  C   UNL     1       9.636  23.395  16.099 -0.37 -0.00    +0.004 C  
DOCKED: ATOM      8  C   UNL     1       9.765  21.938  16.028 -0.30 +0.00    -0.018 A  
DOCKED: ATOM      9  C   UNL     1       8.614  21.191  15.727 -0.33 -0.00    +0.008 A  
DOCKED: ATOM     10  C   UNL     1       8.669  19.803  15.638 -0.31 -0.00    +0.001 A  
DOCKED: ATOM     11  C   UNL     1       9.874  19.152  15.850 -0.38 -0.00    +0.001 A  
DOCKED: ATOM     12  C   UNL     1      11.025  19.885  16.153 -0.36 -0.00    +0.009 A  
DOCKED: ATOM     13  C   UNL     1      11.001  21.291  16.252 -0.31 +0.00    -0.014 A  
DOCKED: ENDBRANCH   2   3
DOCKED: BRANCH   1  14
DOCKED: ATOM     14  C   UNL     1      16.366  23.173  18.643 -0.21 -0.00    +0.031 C  
DOCKED: BRANCH  14  15
DOCKED: ATOM     15  C   UNL     1      16.980  23.746  17.364 -0.32 -0.00    +0.035 C  
DOCKED: BRANCH  15  22
DOCKED: ATOM     16  C   UNL     1      15.221  25.560  17.757 -0.17 +0.00    +0.031 C  
DOCKED: ATOM     17  C   UNL     1      14.690  26.990  17.622 -0.18 +0.00    +0.008 C  
DOCKED: ATOM     18  C   UNL     1      15.773  28.058  17.692 -0.14 +0.00    +0.027 C  
DOCKED: ATOM     19  C   UNL     1      16.467  28.206  16.374 -0.22 -0.00    -0.027 C  
DOCKED: ATOM     20  C   UNL     1      16.991  27.205  15.655 -0.28 -0.00    -0.004 C  
DOCKED: ATOM     21  C   UNL     1      17.156  25.841  16.087 -0.37 -0.00    -0.001 C  
DOCKED: ATOM     22  C   UNL     1      16.450  25.124  16.982 -0.24 -0.00    -0.069 C  
DOCKED: ENDBRANCH  15  22
DOCKED: ENDBRANCH  14  15
DOCKED: ENDBRANCH   1  14
DOCKED: TORSDOF 4
DOCKED: TER
DOCKED: ENDMDL
________________________________________________________________________________


    FINAL DOCKED STATE:
    ________________________


Run:   21 / 50
Time taken for this run:   0.000s

DOCKED: MODEL        21
DOCKED: USER    Run = 21
DOCKED: USER
DOCKED: USER    Estimated Free Energy of Binding    =  -4.68 kcal/mol  [=(1)+(2)+(3)-(4)]
DOCKED: USER
DOCKED: USER    (1) Final Intermolecular Energy     =  -5.88 kcal/mol
DOCKED: USER        vdW + Hbond + desolv Energy     =  -5.88 kcal/mol
DOCKED: USER        Electrostatic Energy            =  +0.00 kcal/mol
DOCKED: USER        Moving Ligand-Fixed Receptor    =  -5.88 kcal/mol
DOCKED: USER        Moving Ligand-Moving Receptor   =  +0.00 kcal/mol
DOCKED: USER    (2) Final Total Internal Energy     =  -1.29 kcal/mol
DOCKED: USER    (3) Torsional Free Energy           =  +1.19 kcal/mol
DOCKED: USER    (4) Unbound System's Energy         =  -1.29 kcal/mol
DOCKED: USER
DOCKED: USER
DOCKED: REMARK  Name = 
DOCKED: REMARK  4 active torsions:
DOCKED: REMARK  status: ('A' for Active; 'I' for Inactive)
DOCKED: REMARK    1  A    between atoms: C_7  and  C_8
DOCKED: REMARK    2  A    between atoms: C_8  and  C_9
DOCKED: REMARK    3  A    between atoms: C_9  and  C_10
DOCKED: REMARK    4  A    between atoms: C_11  and  C_12
DOCKED: REMARK                            x       y       z     vdW  Elec       q    Type
DOCKED: REMARK                         _______ _______ _______ _____ _____    ______ ____
DOCKED: USER                              x       y       z     vdW  Elec       q    Type
DOCKED: USER                           _______ _______ _______ _____ _____    ______ ____
DOCKED: ROOT
DOCKED: ATOM      1  C   UNL     1       6.042  18.207  16.659 -0.25 +0.00    -0.026 C  
DOCKED: ATOM      2  C   UNL     1       7.316  18.500  16.373 -0.25 +0.00    -0.004 C  
DOCKED: ENDROOT
DOCKED: BRANCH   2   3
DOCKED: ATOM      3  C   UNL     1       7.842  19.847  16.373 -0.31 -0.00    +0.004 C  
DOCKED: ATOM      4  C   UNL     1       9.107  20.189  16.030 -0.37 +0.01    -0.036 C  
DOCKED: ATOM      5  C   UNL     1      10.105  19.119  15.612 -0.43 -0.01    +0.063 C  
DOCKED: ATOM      6  C   UNL     1      11.480  19.590  15.262 -0.43 +0.00    -0.022 C  
DOCKED: ATOM      7  C   UNL     1      11.861  20.867  15.298 -0.43 -0.00    +0.004 C  
DOCKED: ATOM      8  C   UNL     1      10.916  21.912  15.694 -0.27 +0.00    -0.018 A  
DOCKED: ATOM      9  C   UNL     1      11.374  23.240  15.709 -0.30 +0.00    +0.008 A  
DOCKED: ATOM     10  C   UNL     1      10.525  24.282  16.071 -0.33 -0.00    +0.001 A  
DOCKED: ATOM     11  C   UNL     1       9.213  24.005  16.419 -0.27 -0.00    +0.001 A  
DOCKED: ATOM     12  C   UNL     1       8.747  22.687  16.409 -0.28 -0.00    +0.009 A  
DOCKED: ATOM     13  C   UNL     1       9.582  21.610  16.051 -0.30 +0.00    -0.014 A  
DOCKED: ENDBRANCH   2   3
DOCKED: BRANCH   1  14
DOCKED: ATOM     14  C   UNL     1       5.550  16.785  16.681 -0.33 -0.00    +0.031 C  
DOCKED: BRANCH  14  15
DOCKED: ATOM     15  C   UNL     1       5.670  16.158  18.071 -0.20 -0.00    +0.035 C  
DOCKED: BRANCH  15  22
DOCKED: ATOM     16  C   UNL     1       8.065  15.275  18.235 -0.23 +0.00    +0.031 C  
DOCKED: ATOM     17  C   UNL     1       9.538  15.409  18.630 -0.24 +0.00    +0.008 C  
DOCKED: ATOM     18  C   UNL     1      10.093  16.818  18.471 -0.22 -0.00    +0.027 C  
DOCKED: ATOM     19  C   UNL     1       9.717  17.679  19.637 -0.14 +0.00    -0.027 C  
DOCKED: ATOM     20  C   UNL     1       8.479  17.830  20.123 -0.07 +0.00    -0.004 C  
DOCKED: ATOM     21  C   UNL     1       7.262  17.355  19.516 -0.08 +0.00    -0.001 C  
DOCKED: ATOM     22  C   UNL     1       7.052  16.304  18.701 -0.16 +0.00    -0.069 C  
DOCKED: ENDBRANCH  15  22
DOCKED: ENDBRANCH  14  15
DOCKED: ENDBRANCH   1  14
DOCKED: TORSDOF 4
DOCKED: TER
DOCKED: ENDMDL
________________________________________________________________________________


    FINAL DOCKED STATE:
    ________________________


Run:   22 / 50
Time taken for this run:   0.000s

DOCKED: MODEL        22
DOCKED: USER    Run = 22
DOCKED: USER
DOCKED: USER    Estimated Free Energy of Binding    =  -4.94 kcal/mol  [=(1)+(2)+(3)-(4)]
DOCKED: USER
DOCKED: USER    (1) Final Intermolecular Energy     =  -6.14 kcal/mol
DOCKED: USER        vdW + Hbond + desolv Energy     =  -6.15 kcal/mol
DOCKED: USER        Electrostatic Energy            =  +0.01 kcal/mol
DOCKED: USER        Moving Ligand-Fixed Receptor    =  -6.14 kcal/mol
DOCKED: USER        Moving Ligand-Moving Receptor   =  +0.00 kcal/mol
DOCKED: USER    (2) Final Total Internal Energy     =  -1.07 kcal/mol
DOCKED: USER    (3) Torsional Free Energy           =  +1.19 kcal/mol
DOCKED: USER    (4) Unbound System's Energy         =  -1.07 kcal/mol
DOCKED: USER
DOCKED: USER
DOCKED: REMARK  Name = 
DOCKED: REMARK  4 active torsions:
DOCKED: REMARK  status: ('A' for Active; 'I' for Inactive)
DOCKED: REMARK    1  A    between atoms: C_7  and  C_8
DOCKED: REMARK    2  A    between atoms: C_8  and  C_9
DOCKED: REMARK    3  A    between atoms: C_9  and  C_10
DOCKED: REMARK    4  A    between atoms: C_11  and  C_12
DOCKED: REMARK                            x       y       z     vdW  Elec       q    Type
DOCKED: REMARK                         _______ _______ _______ _____ _____    ______ ____
DOCKED: USER                              x       y       z     vdW  Elec       q    Type
DOCKED: USER                           _______ _______ _______ _____ _____    ______ ____
DOCKED: ROOT
DOCKED: ATOM      1  C   UNL     1      11.563  25.851  17.925 -0.22 +0.00    -0.026 C  
DOCKED: ATOM      2  C   UNL     1      11.170  25.342  16.752 -0.24 -0.00    -0.004 C  
DOCKED: ENDROOT
DOCKED: BRANCH   2   3
DOCKED: ATOM      3  C   UNL     1      10.341  24.163  16.633 -0.32 -0.00    +0.004 C  
DOCKED: ATOM      4  C   UNL     1      10.788  22.927  16.305 -0.32 +0.00    -0.036 C  
DOCKED: ATOM      5  C   UNL     1      12.264  22.696  16.016 -0.25 +0.01    +0.063 C  
DOCKED: ATOM      6  C   UNL     1      12.663  21.302  15.652 -0.47 +0.00    -0.022 C  
DOCKED: ATOM      7  C   UNL     1      11.809  20.281  15.570 -0.41 -0.00    +0.004 C  
DOCKED: ATOM      8  C   UNL     1      10.385  20.481  15.846 -0.32 +0.00    -0.018 A  
DOCKED: ATOM      9  C   UNL     1       9.535  19.368  15.747 -0.38 -0.00    +0.008 A  
DOCKED: ATOM     10  C   UNL     1       8.172  19.487  16.003 -0.31 -0.00    +0.001 A  
DOCKED: ATOM     11  C   UNL     1       7.649  20.720  16.359 -0.26 -0.00    +0.001 A  
DOCKED: ATOM     12  C   UNL     1       8.486  21.836  16.458 -0.26 -0.00    +0.009 A  
DOCKED: ATOM     13  C   UNL     1       9.870  21.747  16.203 -0.27 +0.00    -0.014 A  
DOCKED: ENDBRANCH   2   3
DOCKED: BRANCH   1  14
DOCKED: ATOM     14  C   UNL     1      12.396  27.102  17.998 -0.20 +0.00    +0.031 C  
DOCKED: BRANCH  14  15
DOCKED: ATOM     15  C   UNL     1      13.758  26.846  18.647 -0.12 -0.00    +0.035 C  
DOCKED: BRANCH  15  22
DOCKED: ATOM     16  C   UNL     1      15.720  26.637  17.020 -0.22 +0.00    +0.031 C  
DOCKED: ATOM     17  C   UNL     1      16.821  25.840  16.315 -0.33 +0.00    +0.008 C  
DOCKED: ATOM     18  C   UNL     1      17.460  24.768  17.187 -0.29 -0.00    +0.027 C  
DOCKED: ATOM     19  C   UNL     1      16.614  23.534  17.229 -0.31 +0.00    -0.027 C  
DOCKED: ATOM     20  C   UNL     1      15.306  23.499  17.511 -0.30 +0.00    -0.004 C  
DOCKED: ATOM     21  C   UNL     1      14.511  24.594  18.008 -0.18 -0.00    -0.001 C  
DOCKED: ATOM     22  C   UNL     1      14.666  25.921  17.844 -0.16 -0.01    -0.069 C  
DOCKED: ENDBRANCH  15  22
DOCKED: ENDBRANCH  14  15
DOCKED: ENDBRANCH   1  14
DOCKED: TORSDOF 4
DOCKED: TER
DOCKED: ENDMDL
________________________________________________________________________________


    FINAL DOCKED STATE:
    ________________________


Run:   23 / 50
Time taken for this run:   0.000s

DOCKED: MODEL        23
DOCKED: USER    Run = 23
DOCKED: USER
DOCKED: USER    Estimated Free Energy of Binding    =  -5.03 kcal/mol  [=(1)+(2)+(3)-(4)]
DOCKED: USER
DOCKED: USER    (1) Final Intermolecular Energy     =  -6.23 kcal/mol
DOCKED: USER        vdW + Hbond + desolv Energy     =  -6.24 kcal/mol
DOCKED: USER        Electrostatic Energy            =  +0.02 kcal/mol
DOCKED: USER        Moving Ligand-Fixed Receptor    =  -6.23 kcal/mol
DOCKED: USER        Moving Ligand-Moving Receptor   =  +0.00 kcal/mol
DOCKED: USER    (2) Final Total Internal Energy     =  -0.96 kcal/mol
DOCKED: USER    (3) Torsional Free Energy           =  +1.19 kcal/mol
DOCKED: USER    (4) Unbound System's Energy         =  -0.96 kcal/mol
DOCKED: USER
DOCKED: USER
DOCKED: REMARK  Name = 
DOCKED: REMARK  4 active torsions:
DOCKED: REMARK  status: ('A' for Active; 'I' for Inactive)
DOCKED: REMARK    1  A    between atoms: C_7  and  C_8
DOCKED: REMARK    2  A    between atoms: C_8  and  C_9
DOCKED: REMARK    3  A    between atoms: C_9  and  C_10
DOCKED: REMARK    4  A    between atoms: C_11  and  C_12
DOCKED: REMARK                            x       y       z     vdW  Elec       q    Type
DOCKED: REMARK                         _______ _______ _______ _____ _____    ______ ____
DOCKED: USER                              x       y       z     vdW  Elec       q    Type
DOCKED: USER                           _______ _______ _______ _____ _____    ______ ____
DOCKED: ROOT
DOCKED: ATOM      1  C   UNL     1      11.709  25.511  17.713 -0.22 +0.00    -0.026 C  
DOCKED: ATOM      2  C   UNL     1      10.809  25.284  16.748 -0.29 +0.00    -0.004 C  
DOCKED: ENDROOT
DOCKED: BRANCH   2   3
DOCKED: ATOM      3  C   UNL     1      10.055  24.055  16.636 -0.31 -0.00    +0.004 C  
DOCKED: ATOM      4  C   UNL     1      10.574  22.851  16.294 -0.32 +0.00    -0.036 C  
DOCKED: ATOM      5  C   UNL     1      12.057  22.715  15.981 -0.28 +0.01    +0.063 C  
DOCKED: ATOM      6  C   UNL     1      12.536  21.351  15.603 -0.48 +0.00    -0.022 C  
DOCKED: ATOM      7  C   UNL     1      11.747  20.279  15.529 -0.42 -0.00    +0.004 C  
DOCKED: ATOM      8  C   UNL     1      10.319  20.387  15.828 -0.33 +0.00    -0.018 A  
DOCKED: ATOM      9  C   UNL     1       9.539  19.222  15.736 -0.35 -0.00    +0.008 A  
DOCKED: ATOM     10  C   UNL     1       8.175  19.254  16.014 -0.30 -0.00    +0.001 A  
DOCKED: ATOM     11  C   UNL     1       7.581  20.451  16.385 -0.26 -0.00    +0.001 A  
DOCKED: ATOM     12  C   UNL     1       8.348  21.616  16.477 -0.26 -0.00    +0.009 A  
DOCKED: ATOM     13  C   UNL     1       9.730  21.616  16.200 -0.28 +0.00    -0.014 A  
DOCKED: ENDBRANCH   2   3
DOCKED: BRANCH   1  14
DOCKED: ATOM     14  C   UNL     1      12.444  26.820  17.808 -0.19 +0.00    +0.031 C  
DOCKED: BRANCH  14  15
DOCKED: ATOM     15  C   UNL     1      13.804  26.665  18.492 -0.13 +0.00    +0.035 C  
DOCKED: BRANCH  15  22
DOCKED: ATOM     16  C   UNL     1      15.761  26.577  16.847 -0.21 +0.01    +0.031 C  
DOCKED: ATOM     17  C   UNL     1      16.930  25.862  16.165 -0.34 +0.00    +0.008 C  
DOCKED: ATOM     18  C   UNL     1      17.684  24.904  17.077 -0.29 -0.00    +0.027 C  
DOCKED: ATOM     19  C   UNL     1      16.968  23.594  17.190 -0.32 +0.00    -0.027 C  
DOCKED: ATOM     20  C   UNL     1      15.672  23.441  17.493 -0.32 +0.00    -0.004 C  
DOCKED: ATOM     21  C   UNL     1      14.776  24.472  17.948 -0.19 -0.00    -0.001 C  
DOCKED: ATOM     22  C   UNL     1      14.793  25.799  17.719 -0.15 -0.01    -0.069 C  
DOCKED: ENDBRANCH  15  22
DOCKED: ENDBRANCH  14  15
DOCKED: ENDBRANCH   1  14
DOCKED: TORSDOF 4
DOCKED: TER
DOCKED: ENDMDL
________________________________________________________________________________


    FINAL DOCKED STATE:
    ________________________


Run:   24 / 50
Time taken for this run:   0.000s

DOCKED: MODEL        24
DOCKED: USER    Run = 24
DOCKED: USER
DOCKED: USER    Estimated Free Energy of Binding    =  -5.35 kcal/mol  [=(1)+(2)+(3)-(4)]
DOCKED: USER
DOCKED: USER    (1) Final Intermolecular Energy     =  -6.54 kcal/mol
DOCKED: USER        vdW + Hbond + desolv Energy     =  -6.53 kcal/mol
DOCKED: USER        Electrostatic Energy            =  -0.01 kcal/mol
DOCKED: USER        Moving Ligand-Fixed Receptor    =  -6.54 kcal/mol
DOCKED: USER        Moving Ligand-Moving Receptor   =  +0.00 kcal/mol
DOCKED: USER    (2) Final Total Internal Energy     =  -0.63 kcal/mol
DOCKED: USER    (3) Torsional Free Energy           =  +1.19 kcal/mol
DOCKED: USER    (4) Unbound System's Energy         =  -0.63 kcal/mol
DOCKED: USER
DOCKED: USER
DOCKED: REMARK  Name = 
DOCKED: REMARK  4 active torsions:
DOCKED: REMARK  status: ('A' for Active; 'I' for Inactive)
DOCKED: REMARK    1  A    between atoms: C_7  and  C_8
DOCKED: REMARK    2  A    between atoms: C_8  and  C_9
DOCKED: REMARK    3  A    between atoms: C_9  and  C_10
DOCKED: REMARK    4  A    between atoms: C_11  and  C_12
DOCKED: REMARK                            x       y       z     vdW  Elec       q    Type
DOCKED: REMARK                         _______ _______ _______ _____ _____    ______ ____
DOCKED: USER                              x       y       z     vdW  Elec       q    Type
DOCKED: USER                           _______ _______ _______ _____ _____    ______ ____
DOCKED: ROOT
DOCKED: ATOM      1  C   UNL     1      13.055  21.883  16.991 -0.35 +0.00    -0.026 C  
DOCKED: ATOM      2  C   UNL     1      12.375  22.488  16.010 -0.32 -0.00    -0.004 C  
DOCKED: ENDROOT
DOCKED: BRANCH   2   3
DOCKED: ATOM      3  C   UNL     1      10.938  22.649  16.019 -0.37 -0.00    +0.004 C  
DOCKED: ATOM      4  C   UNL     1      10.041  21.634  16.029 -0.32 +0.00    -0.036 C  
DOCKED: ATOM      5  C   UNL     1      10.517  20.189  16.021 -0.40 -0.01    +0.063 C  
DOCKED: ATOM      6  C   UNL     1       9.456  19.136  16.022 -0.38 +0.00    -0.022 C  
DOCKED: ATOM      7  C   UNL     1       8.148  19.398  16.029 -0.34 -0.00    +0.004 C  
DOCKED: ATOM      8  C   UNL     1       7.669  20.782  16.039 -0.27 +0.00    -0.018 A  
DOCKED: ATOM      9  C   UNL     1       6.280  20.995  16.050 -0.18 -0.00    +0.008 A  
DOCKED: ATOM     10  C   UNL     1       5.758  22.285  16.066 -0.26 -0.00    +0.001 A  
DOCKED: ATOM     11  C   UNL     1       6.620  23.371  16.072 -0.23 -0.00    +0.001 A  
DOCKED: ATOM     12  C   UNL     1       8.003  23.170  16.059 -0.30 -0.00    +0.009 A  
DOCKED: ATOM     13  C   UNL     1       8.562  21.876  16.040 -0.32 +0.00    -0.014 A  
DOCKED: ENDBRANCH   2   3
DOCKED: BRANCH   1  14
DOCKED: ATOM     14  C   UNL     1      14.555  21.771  16.954 -0.36 -0.01    +0.031 C  
DOCKED: BRANCH  14  15
DOCKED: ATOM     15  C   UNL     1      15.211  22.462  18.151 -0.29 -0.01    +0.035 C  
DOCKED: BRANCH  15  22
DOCKED: ATOM     16  C   UNL     1      17.299  23.688  17.326 -0.32 -0.00    +0.031 C  
DOCKED: ATOM     17  C   UNL     1      18.021  24.918  16.771 -0.32 -0.00    +0.008 C  
DOCKED: ATOM     18  C   UNL     1      17.184  25.737  15.798 -0.30 +0.00    +0.027 C  
DOCKED: ATOM     19  C   UNL     1      16.239  26.639  16.528 -0.27 -0.00    -0.027 C  
DOCKED: ATOM     20  C   UNL     1      15.398  26.260  17.500 -0.21 -0.00    -0.004 C  
DOCKED: ATOM     21  C   UNL     1      15.106  24.906  17.893 -0.19 -0.00    -0.001 C  
DOCKED: ATOM     22  C   UNL     1      15.867  23.797  17.816 -0.25 +0.00    -0.069 C  
DOCKED: ENDBRANCH  15  22
DOCKED: ENDBRANCH  14  15
DOCKED: ENDBRANCH   1  14
DOCKED: TORSDOF 4
DOCKED: TER
DOCKED: ENDMDL
________________________________________________________________________________


    FINAL DOCKED STATE:
    ________________________


Run:   25 / 50
Time taken for this run:   0.000s

DOCKED: MODEL        25
DOCKED: USER    Run = 25
DOCKED: USER
DOCKED: USER    Estimated Free Energy of Binding    =  -5.27 kcal/mol  [=(1)+(2)+(3)-(4)]
DOCKED: USER
DOCKED: USER    (1) Final Intermolecular Energy     =  -6.46 kcal/mol
DOCKED: USER        vdW + Hbond + desolv Energy     =  -6.47 kcal/mol
DOCKED: USER        Electrostatic Energy            =  +0.01 kcal/mol
DOCKED: USER        Moving Ligand-Fixed Receptor    =  -6.46 kcal/mol
DOCKED: USER        Moving Ligand-Moving Receptor   =  +0.00 kcal/mol
DOCKED: USER    (2) Final Total Internal Energy     =  -0.55 kcal/mol
DOCKED: USER    (3) Torsional Free Energy           =  +1.19 kcal/mol
DOCKED: USER    (4) Unbound System's Energy         =  -0.55 kcal/mol
DOCKED: USER
DOCKED: USER
DOCKED: REMARK  Name = 
DOCKED: REMARK  4 active torsions:
DOCKED: REMARK  status: ('A' for Active; 'I' for Inactive)
DOCKED: REMARK    1  A    between atoms: C_7  and  C_8
DOCKED: REMARK    2  A    between atoms: C_8  and  C_9
DOCKED: REMARK    3  A    between atoms: C_9  and  C_10
DOCKED: REMARK    4  A    between atoms: C_11  and  C_12
DOCKED: REMARK                            x       y       z     vdW  Elec       q    Type
DOCKED: REMARK                         _______ _______ _______ _____ _____    ______ ____
DOCKED: USER                              x       y       z     vdW  Elec       q    Type
DOCKED: USER                           _______ _______ _______ _____ _____    ______ ____
DOCKED: ROOT
DOCKED: ATOM      1  C   UNL     1      14.823  22.218  18.091 -0.31 +0.00    -0.026 C  
DOCKED: ATOM      2  C   UNL     1      14.157  22.123  16.935 -0.37 +0.00    -0.004 C  
DOCKED: ENDROOT
DOCKED: BRANCH   2   3
DOCKED: ATOM      3  C   UNL     1      12.910  21.404  16.792 -0.36 -0.00    +0.004 C  
DOCKED: ATOM      4  C   UNL     1      11.732  21.956  16.414 -0.34 +0.00    -0.036 C  
DOCKED: ATOM      5  C   UNL     1      11.644  23.444  16.111 -0.23 +0.01    +0.063 C  
DOCKED: ATOM      6  C   UNL     1      10.301  23.966  15.712 -0.42 +0.00    -0.022 C  
DOCKED: ATOM      7  C   UNL     1       9.208  23.208  15.613 -0.41 -0.00    +0.004 C  
DOCKED: ATOM      8  C   UNL     1       9.271  21.774  15.898 -0.30 +0.00    -0.018 A  
DOCKED: ATOM      9  C   UNL     1       8.088  21.027  15.774 -0.31 -0.00    +0.008 A  
DOCKED: ATOM     10  C   UNL     1       8.080  19.658  16.024 -0.28 -0.00    +0.001 A  
DOCKED: ATOM     11  C   UNL     1       9.255  19.025  16.401 -0.29 -0.00    +0.001 A  
DOCKED: ATOM     12  C   UNL     1      10.438  19.759  16.530 -0.33 -0.00    +0.009 A  
DOCKED: ATOM     13  C   UNL     1      10.477  21.147  16.286 -0.29 +0.00    -0.014 A  
DOCKED: ENDBRANCH   2   3
DOCKED: BRANCH   1  14
DOCKED: ATOM     14  C   UNL     1      16.100  23.008  18.198 -0.25 -0.00    +0.031 C  
DOCKED: BRANCH  14  15
DOCKED: ATOM     15  C   UNL     1      16.188  24.103  17.134 -0.27 -0.00    +0.035 C  
DOCKED: BRANCH  15  22
DOCKED: ATOM     16  C   UNL     1      18.692  23.971  17.639 -0.24 -0.00    +0.031 C  
DOCKED: ATOM     17  C   UNL     1      20.140  24.430  17.456 -0.18 -0.00    +0.008 C  
DOCKED: ATOM     18  C   UNL     1      20.473  24.867  16.036 -0.23 -0.01    +0.027 C  
DOCKED: ATOM     19  C   UNL     1      20.012  26.268  15.782 -0.20 +0.00    -0.027 C  
DOCKED: ATOM     20  C   UNL     1      18.781  26.736  16.026 -0.24 -0.00    -0.004 C  
DOCKED: ATOM     21  C   UNL     1      17.629  25.954  16.394 -0.33 -0.00    -0.001 C  
DOCKED: ATOM     22  C   UNL     1      17.552  24.780  17.049 -0.29 +0.01    -0.069 C  
DOCKED: ENDBRANCH  15  22
DOCKED: ENDBRANCH  14  15
DOCKED: ENDBRANCH   1  14
DOCKED: TORSDOF 4
DOCKED: TER
DOCKED: ENDMDL
________________________________________________________________________________


    FINAL DOCKED STATE:
    ________________________


Run:   26 / 50
Time taken for this run:   0.000s

DOCKED: MODEL        26
DOCKED: USER    Run = 26
DOCKED: USER
DOCKED: USER    Estimated Free Energy of Binding    =  -4.34 kcal/mol  [=(1)+(2)+(3)-(4)]
DOCKED: USER
DOCKED: USER    (1) Final Intermolecular Energy     =  -5.53 kcal/mol
DOCKED: USER        vdW + Hbond + desolv Energy     =  -5.54 kcal/mol
DOCKED: USER        Electrostatic Energy            =  +0.01 kcal/mol
DOCKED: USER        Moving Ligand-Fixed Receptor    =  -5.53 kcal/mol
DOCKED: USER        Moving Ligand-Moving Receptor   =  +0.00 kcal/mol
DOCKED: USER    (2) Final Total Internal Energy     =  -1.53 kcal/mol
DOCKED: USER    (3) Torsional Free Energy           =  +1.19 kcal/mol
DOCKED: USER    (4) Unbound System's Energy         =  -1.53 kcal/mol
DOCKED: USER
DOCKED: USER
DOCKED: REMARK  Name = 
DOCKED: REMARK  4 active torsions:
DOCKED: REMARK  status: ('A' for Active; 'I' for Inactive)
DOCKED: REMARK    1  A    between atoms: C_7  and  C_8
DOCKED: REMARK    2  A    between atoms: C_8  and  C_9
DOCKED: REMARK    3  A    between atoms: C_9  and  C_10
DOCKED: REMARK    4  A    between atoms: C_11  and  C_12
DOCKED: REMARK                            x       y       z     vdW  Elec       q    Type
DOCKED: REMARK                         _______ _______ _______ _____ _____    ______ ____
DOCKED: USER                              x       y       z     vdW  Elec       q    Type
DOCKED: USER                           _______ _______ _______ _____ _____    ______ ____
DOCKED: ROOT
DOCKED: ATOM      1  C   UNL     1      11.984  25.303  17.870 -0.19 +0.00    -0.026 C  
DOCKED: ATOM      2  C   UNL     1      11.476  24.771  16.752 -0.24 -0.00    -0.004 C  
DOCKED: ENDROOT
DOCKED: BRANCH   2   3
DOCKED: ATOM      3  C   UNL     1      10.482  23.720  16.751 -0.29 -0.00    +0.004 C  
DOCKED: ATOM      4  C   UNL     1      10.686  22.456  16.310 -0.31 +0.00    -0.036 C  
DOCKED: ATOM      5  C   UNL     1      12.041  22.047  15.752 -0.38 +0.00    +0.063 C  
DOCKED: ATOM      6  C   UNL     1      12.170  20.635  15.280 -0.46 +0.00    -0.022 C  
DOCKED: ATOM      7  C   UNL     1      11.180  19.742  15.324 -0.47 -0.00    +0.004 C  
DOCKED: ATOM      8  C   UNL     1       9.869  20.114  15.860 -0.36 +0.00    -0.018 A  
DOCKED: ATOM      9  C   UNL     1       8.867  19.130  15.884 -0.29 -0.00    +0.008 A  
DOCKED: ATOM     10  C   UNL     1       7.601  19.416  16.387 -0.25 -0.00    +0.001 A  
DOCKED: ATOM     11  C   UNL     1       7.327  20.686  16.868 -0.19 -0.00    +0.001 A  
DOCKED: ATOM     12  C   UNL     1       8.317  21.674  16.847 -0.21 -0.00    +0.009 A  
DOCKED: ATOM     13  C   UNL     1       9.607  21.416  16.342 -0.27 +0.00    -0.014 A  
DOCKED: ENDBRANCH   2   3
DOCKED: BRANCH   1  14
DOCKED: ATOM     14  C   UNL     1      12.991  26.420  17.819 -0.18 +0.00    +0.031 C  
DOCKED: BRANCH  14  15
DOCKED: ATOM     15  C   UNL     1      14.304  26.040  18.507 -0.12 -0.00    +0.035 C  
DOCKED: BRANCH  15  22
DOCKED: ATOM     16  C   UNL     1      14.058  23.907  19.897 -0.05 -0.00    +0.031 C  
DOCKED: ATOM     17  C   UNL     1      14.053  22.384  20.060 -0.09 -0.00    +0.008 C  
DOCKED: ATOM     18  C   UNL     1      13.490  21.638  18.858 -0.19 -0.00    +0.027 C  
DOCKED: ATOM     19  C   UNL     1      14.518  21.505  17.779 -0.32 +0.01    -0.027 C  
DOCKED: ATOM     20  C   UNL     1      15.248  22.507  17.273 -0.33 +0.00    -0.004 C  
DOCKED: ATOM     21  C   UNL     1      15.058  23.912  17.528 -0.22 -0.00    -0.001 C  
DOCKED: ATOM     22  C   UNL     1      14.542  24.536  18.604 -0.12 +0.00    -0.069 C  
DOCKED: ENDBRANCH  15  22
DOCKED: ENDBRANCH  14  15
DOCKED: ENDBRANCH   1  14
DOCKED: TORSDOF 4
DOCKED: TER
DOCKED: ENDMDL
________________________________________________________________________________


    FINAL DOCKED STATE:
    ________________________


Run:   27 / 50
Time taken for this run:   0.000s

DOCKED: MODEL        27
DOCKED: USER    Run = 27
DOCKED: USER
DOCKED: USER    Estimated Free Energy of Binding    =  -5.16 kcal/mol  [=(1)+(2)+(3)-(4)]
DOCKED: USER
DOCKED: USER    (1) Final Intermolecular Energy     =  -6.35 kcal/mol
DOCKED: USER        vdW + Hbond + desolv Energy     =  -6.35 kcal/mol
DOCKED: USER        Electrostatic Energy            =  +0.00 kcal/mol
DOCKED: USER        Moving Ligand-Fixed Receptor    =  -6.35 kcal/mol
DOCKED: USER        Moving Ligand-Moving Receptor   =  +0.00 kcal/mol
DOCKED: USER    (2) Final Total Internal Energy     =  -0.90 kcal/mol
DOCKED: USER    (3) Torsional Free Energy           =  +1.19 kcal/mol
DOCKED: USER    (4) Unbound System's Energy         =  -0.90 kcal/mol
DOCKED: USER
DOCKED: USER
DOCKED: REMARK  Name = 
DOCKED: REMARK  4 active torsions:
DOCKED: REMARK  status: ('A' for Active; 'I' for Inactive)
DOCKED: REMARK    1  A    between atoms: C_7  and  C_8
DOCKED: REMARK    2  A    between atoms: C_8  and  C_9
DOCKED: REMARK    3  A    between atoms: C_9  and  C_10
DOCKED: REMARK    4  A    between atoms: C_11  and  C_12
DOCKED: REMARK                            x       y       z     vdW  Elec       q    Type
DOCKED: REMARK                         _______ _______ _______ _____ _____    ______ ____
DOCKED: USER                              x       y       z     vdW  Elec       q    Type
DOCKED: USER                           _______ _______ _______ _____ _____    ______ ____
DOCKED: ROOT
DOCKED: ATOM      1  C   UNL     1      15.086  22.309  18.379 -0.27 +0.00    -0.026 C  
DOCKED: ATOM      2  C   UNL     1      14.580  22.241  17.141 -0.38 +0.00    -0.004 C  
DOCKED: ENDROOT
DOCKED: BRANCH   2   3
DOCKED: ATOM      3  C   UNL     1      13.352  21.548  16.820 -0.36 -0.00    +0.004 C  
DOCKED: ATOM      4  C   UNL     1      12.157  22.145  16.597 -0.33 +0.00    -0.036 C  
DOCKED: ATOM      5  C   UNL     1      12.027  23.658  16.685 -0.20 +0.00    +0.063 C  
DOCKED: ATOM      6  C   UNL     1      10.667  24.226  16.434 -0.33 +0.00    -0.022 C  
DOCKED: ATOM      7  C   UNL     1       9.594  23.489  16.146 -0.37 -0.00    +0.004 C  
DOCKED: ATOM      8  C   UNL     1       9.698  22.032  16.054 -0.30 +0.00    -0.018 A  
DOCKED: ATOM      9  C   UNL     1       8.534  21.309  15.743 -0.33 -0.00    +0.008 A  
DOCKED: ATOM     10  C   UNL     1       8.566  19.922  15.634 -0.29 -0.00    +0.001 A  
DOCKED: ATOM     11  C   UNL     1       9.759  19.247  15.835 -0.38 -0.00    +0.001 A  
DOCKED: ATOM     12  C   UNL     1      10.923  19.956  16.147 -0.37 -0.00    +0.009 A  
DOCKED: ATOM     13  C   UNL     1      10.923  21.361  16.266 -0.30 +0.00    -0.014 A  
DOCKED: ENDBRANCH   2   3
DOCKED: BRANCH   1  14
DOCKED: ATOM     14  C   UNL     1      16.350  23.072  18.670 -0.20 -0.00    +0.031 C  
DOCKED: BRANCH  14  15
DOCKED: ATOM     15  C   UNL     1      16.973  23.654  17.400 -0.32 -0.00    +0.035 C  
DOCKED: BRANCH  15  22
DOCKED: ATOM     16  C   UNL     1      15.221  25.472  17.810 -0.17 +0.00    +0.031 C  
DOCKED: ATOM     17  C   UNL     1      14.690  26.901  17.676 -0.18 +0.00    +0.008 C  
DOCKED: ATOM     18  C   UNL     1      15.775  27.969  17.724 -0.14 +0.00    +0.027 C  
DOCKED: ATOM     19  C   UNL     1      16.448  28.110  16.395 -0.23 -0.00    -0.027 C  
DOCKED: ATOM     20  C   UNL     1      16.960  27.104  15.673 -0.29 -0.00    -0.004 C  
DOCKED: ATOM     21  C   UNL     1      17.130  25.743  16.110 -0.36 -0.00    -0.001 C  
DOCKED: ATOM     22  C   UNL     1      16.438  25.030  17.019 -0.24 -0.00    -0.069 C  
DOCKED: ENDBRANCH  15  22
DOCKED: ENDBRANCH  14  15
DOCKED: ENDBRANCH   1  14
DOCKED: TORSDOF 4
DOCKED: TER
DOCKED: ENDMDL
________________________________________________________________________________


    FINAL DOCKED STATE:
    ________________________


Run:   28 / 50
Time taken for this run:   0.000s

DOCKED: MODEL        28
DOCKED: USER    Run = 28
DOCKED: USER
DOCKED: USER    Estimated Free Energy of Binding    =  -5.16 kcal/mol  [=(1)+(2)+(3)-(4)]
DOCKED: USER
DOCKED: USER    (1) Final Intermolecular Energy     =  -6.35 kcal/mol
DOCKED: USER        vdW + Hbond + desolv Energy     =  -6.35 kcal/mol
DOCKED: USER        Electrostatic Energy            =  +0.00 kcal/mol
DOCKED: USER        Moving Ligand-Fixed Receptor    =  -6.35 kcal/mol
DOCKED: USER        Moving Ligand-Moving Receptor   =  +0.00 kcal/mol
DOCKED: USER    (2) Final Total Internal Energy     =  -0.77 kcal/mol
DOCKED: USER    (3) Torsional Free Energy           =  +1.19 kcal/mol
DOCKED: USER    (4) Unbound System's Energy         =  -0.77 kcal/mol
DOCKED: USER
DOCKED: USER
DOCKED: REMARK  Name = 
DOCKED: REMARK  4 active torsions:
DOCKED: REMARK  status: ('A' for Active; 'I' for Inactive)
DOCKED: REMARK    1  A    between atoms: C_7  and  C_8
DOCKED: REMARK    2  A    between atoms: C_8  and  C_9
DOCKED: REMARK    3  A    between atoms: C_9  and  C_10
DOCKED: REMARK    4  A    between atoms: C_11  and  C_12
DOCKED: REMARK                            x       y       z     vdW  Elec       q    Type
DOCKED: REMARK                         _______ _______ _______ _____ _____    ______ ____
DOCKED: USER                              x       y       z     vdW  Elec       q    Type
DOCKED: USER                           _______ _______ _______ _____ _____    ______ ____
DOCKED: ROOT
DOCKED: ATOM      1  C   UNL     1      15.328  22.479  18.035 -0.29 +0.00    -0.026 C  
DOCKED: ATOM      2  C   UNL     1      14.321  22.832  17.227 -0.29 +0.00    -0.004 C  
DOCKED: ENDROOT
DOCKED: BRANCH   2   3
DOCKED: ATOM      3  C   UNL     1      13.215  21.958  16.905 -0.38 -0.00    +0.004 C  
DOCKED: ATOM      4  C   UNL     1      11.963  22.369  16.591 -0.32 +0.00    -0.036 C  
DOCKED: ATOM      5  C   UNL     1      11.627  23.852  16.564 -0.23 +0.00    +0.063 C  
DOCKED: ATOM      6  C   UNL     1      10.218  24.211  16.216 -0.35 +0.00    -0.022 C  
DOCKED: ATOM      7  C   UNL     1       9.269  23.316  15.937 -0.38 -0.00    +0.004 C  
DOCKED: ATOM      8  C   UNL     1       9.573  21.884  15.954 -0.29 +0.00    -0.018 A  
DOCKED: ATOM      9  C   UNL     1       8.534  20.989  15.648 -0.33 -0.00    +0.008 A  
DOCKED: ATOM     10  C   UNL     1       8.756  19.615  15.641 -0.32 -0.00    +0.001 A  
DOCKED: ATOM     11  C   UNL     1      10.018  19.125  15.939 -0.39 -0.00    +0.001 A  
DOCKED: ATOM     12  C   UNL     1      11.059  20.007  16.248 -0.34 -0.00    +0.009 A  
DOCKED: ATOM     13  C   UNL     1      10.864  21.403  16.266 -0.29 +0.00    -0.014 A  
DOCKED: ENDBRANCH   2   3
DOCKED: BRANCH   1  14
DOCKED: ATOM     14  C   UNL     1      16.440  23.437  18.367 -0.23 -0.00    +0.031 C  
DOCKED: BRANCH  14  15
DOCKED: ATOM     15  C   UNL     1      17.039  24.077  17.114 -0.33 -0.00    +0.035 C  
DOCKED: BRANCH  15  22
DOCKED: ATOM     16  C   UNL     1      15.301  25.881  17.633 -0.18 +0.00    +0.031 C  
DOCKED: ATOM     17  C   UNL     1      14.787  27.323  17.596 -0.18 +0.00    +0.008 C  
DOCKED: ATOM     18  C   UNL     1      15.883  28.372  17.731 -0.12 +0.00    +0.027 C  
DOCKED: ATOM     19  C   UNL     1      16.574  28.599  16.424 -0.20 -0.00    -0.027 C  
DOCKED: ATOM     20  C   UNL     1      17.083  27.642  15.638 -0.28 -0.00    -0.004 C  
DOCKED: ATOM     21  C   UNL     1      17.234  26.251  15.978 -0.37 -0.00    -0.001 C  
DOCKED: ATOM     22  C   UNL     1      16.523  25.484  16.826 -0.25 -0.00    -0.069 C  
DOCKED: ENDBRANCH  15  22
DOCKED: ENDBRANCH  14  15
DOCKED: ENDBRANCH   1  14
DOCKED: TORSDOF 4
DOCKED: TER
DOCKED: ENDMDL
________________________________________________________________________________


    FINAL DOCKED STATE:
    ________________________


Run:   29 / 50
Time taken for this run:   0.000s

DOCKED: MODEL        29
DOCKED: USER    Run = 29
DOCKED: USER
DOCKED: USER    Estimated Free Energy of Binding    =  -5.35 kcal/mol  [=(1)+(2)+(3)-(4)]
DOCKED: USER
DOCKED: USER    (1) Final Intermolecular Energy     =  -6.54 kcal/mol
DOCKED: USER        vdW + Hbond + desolv Energy     =  -6.53 kcal/mol
DOCKED: USER        Electrostatic Energy            =  -0.01 kcal/mol
DOCKED: USER        Moving Ligand-Fixed Receptor    =  -6.54 kcal/mol
DOCKED: USER        Moving Ligand-Moving Receptor   =  +0.00 kcal/mol
DOCKED: USER    (2) Final Total Internal Energy     =  -0.58 kcal/mol
DOCKED: USER    (3) Torsional Free Energy           =  +1.19 kcal/mol
DOCKED: USER    (4) Unbound System's Energy         =  -0.58 kcal/mol
DOCKED: USER
DOCKED: USER
DOCKED: REMARK  Name = 
DOCKED: REMARK  4 active torsions:
DOCKED: REMARK  status: ('A' for Active; 'I' for Inactive)
DOCKED: REMARK    1  A    between atoms: C_7  and  C_8
DOCKED: REMARK    2  A    between atoms: C_8  and  C_9
DOCKED: REMARK    3  A    between atoms: C_9  and  C_10
DOCKED: REMARK    4  A    between atoms: C_11  and  C_12
DOCKED: REMARK                            x       y       z     vdW  Elec       q    Type
DOCKED: REMARK                         _______ _______ _______ _____ _____    ______ ____
DOCKED: USER                              x       y       z     vdW  Elec       q    Type
DOCKED: USER                           _______ _______ _______ _____ _____    ______ ____
DOCKED: ROOT
DOCKED: ATOM      1  C   UNL     1      12.959  21.815  16.846 -0.37 +0.00    -0.026 C  
DOCKED: ATOM      2  C   UNL     1      12.286  22.591  15.988 -0.31 -0.00    -0.004 C  
DOCKED: ENDROOT
DOCKED: BRANCH   2   3
DOCKED: ATOM      3  C   UNL     1      10.846  22.727  16.000 -0.37 -0.00    +0.004 C  
DOCKED: ATOM      4  C   UNL     1       9.967  21.697  16.013 -0.32 +0.00    -0.036 C  
DOCKED: ATOM      5  C   UNL     1      10.468  20.260  16.007 -0.39 -0.01    +0.063 C  
DOCKED: ATOM      6  C   UNL     1       9.425  19.190  16.011 -0.39 +0.00    -0.022 C  
DOCKED: ATOM      7  C   UNL     1       8.113  19.429  16.020 -0.33 -0.00    +0.004 C  
DOCKED: ATOM      8  C   UNL     1       7.610  20.804  16.029 -0.27 +0.00    -0.018 A  
DOCKED: ATOM      9  C   UNL     1       6.218  20.993  16.041 -0.17 -0.00    +0.008 A  
DOCKED: ATOM     10  C   UNL     1       5.674  22.274  16.057 -0.25 -0.00    +0.001 A  
DOCKED: ATOM     11  C   UNL     1       6.516  23.375  16.059 -0.24 -0.00    +0.001 A  
DOCKED: ATOM     12  C   UNL     1       7.903  23.198  16.044 -0.29 -0.00    +0.009 A  
DOCKED: ATOM     13  C   UNL     1       8.484  21.914  16.026 -0.32 +0.00    -0.014 A  
DOCKED: ENDBRANCH   2   3
DOCKED: BRANCH   1  14
DOCKED: ATOM     14  C   UNL     1      14.461  21.733  16.817 -0.35 -0.01    +0.031 C  
DOCKED: BRANCH  14  15
DOCKED: ATOM     15  C   UNL     1      15.092  22.353  18.066 -0.29 -0.01    +0.035 C  
DOCKED: BRANCH  15  22
DOCKED: ATOM     16  C   UNL     1      17.215  23.623  17.413 -0.32 -0.00    +0.031 C  
DOCKED: ATOM     17  C   UNL     1      17.958  24.878  16.949 -0.31 -0.00    +0.008 C  
DOCKED: ATOM     18  C   UNL     1      17.173  25.730  15.961 -0.35 +0.00    +0.027 C  
DOCKED: ATOM     19  C   UNL     1      16.179  26.597  16.669 -0.26 -0.00    -0.027 C  
DOCKED: ATOM     20  C   UNL     1      15.287  26.175  17.574 -0.20 -0.00    -0.004 C  
DOCKED: ATOM     21  C   UNL     1      14.983  24.805  17.897 -0.19 -0.00    -0.001 C  
DOCKED: ATOM     22  C   UNL     1      15.756  23.705  17.821 -0.26 +0.00    -0.069 C  
DOCKED: ENDBRANCH  15  22
DOCKED: ENDBRANCH  14  15
DOCKED: ENDBRANCH   1  14
DOCKED: TORSDOF 4
DOCKED: TER
DOCKED: ENDMDL
________________________________________________________________________________


    FINAL DOCKED STATE:
    ________________________


Run:   30 / 50
Time taken for this run:   0.000s

DOCKED: MODEL        30
DOCKED: USER    Run = 30
DOCKED: USER
DOCKED: USER    Estimated Free Energy of Binding    =  -5.03 kcal/mol  [=(1)+(2)+(3)-(4)]
DOCKED: USER
DOCKED: USER    (1) Final Intermolecular Energy     =  -6.22 kcal/mol
DOCKED: USER        vdW + Hbond + desolv Energy     =  -6.24 kcal/mol
DOCKED: USER        Electrostatic Energy            =  +0.02 kcal/mol
DOCKED: USER        Moving Ligand-Fixed Receptor    =  -6.22 kcal/mol
DOCKED: USER        Moving Ligand-Moving Receptor   =  +0.00 kcal/mol
DOCKED: USER    (2) Final Total Internal Energy     =  -1.00 kcal/mol
DOCKED: USER    (3) Torsional Free Energy           =  +1.19 kcal/mol
DOCKED: USER    (4) Unbound System's Energy         =  -1.00 kcal/mol
DOCKED: USER
DOCKED: USER
DOCKED: REMARK  Name = 
DOCKED: REMARK  4 active torsions:
DOCKED: REMARK  status: ('A' for Active; 'I' for Inactive)
DOCKED: REMARK    1  A    between atoms: C_7  and  C_8
DOCKED: REMARK    2  A    between atoms: C_8  and  C_9
DOCKED: REMARK    3  A    between atoms: C_9  and  C_10
DOCKED: REMARK    4  A    between atoms: C_11  and  C_12
DOCKED: REMARK                            x       y       z     vdW  Elec       q    Type
DOCKED: REMARK                         _______ _______ _______ _____ _____    ______ ____
DOCKED: USER                              x       y       z     vdW  Elec       q    Type
DOCKED: USER                           _______ _______ _______ _____ _____    ______ ____
DOCKED: ROOT
DOCKED: ATOM      1  C   UNL     1      11.828  25.682  17.842 -0.21 +0.00    -0.026 C  
DOCKED: ATOM      2  C   UNL     1      11.093  25.395  16.762 -0.25 -0.00    -0.004 C  
DOCKED: ENDROOT
DOCKED: BRANCH   2   3
DOCKED: ATOM      3  C   UNL     1      10.281  24.203  16.645 -0.32 -0.00    +0.004 C  
DOCKED: ATOM      4  C   UNL     1      10.745  22.974  16.316 -0.32 +0.00    -0.036 C  
DOCKED: ATOM      5  C   UNL     1      12.224  22.765  16.024 -0.24 +0.01    +0.063 C  
DOCKED: ATOM      6  C   UNL     1      12.642  21.377  15.659 -0.48 +0.00    -0.022 C  
DOCKED: ATOM      7  C   UNL     1      11.803  20.344  15.578 -0.42 -0.00    +0.004 C  
DOCKED: ATOM      8  C   UNL     1      10.377  20.523  15.857 -0.32 +0.00    -0.018 A  
DOCKED: ATOM      9  C   UNL     1       9.543  19.397  15.760 -0.38 -0.00    +0.008 A  
DOCKED: ATOM     10  C   UNL     1       8.178  19.497  16.019 -0.31 -0.00    +0.001 A  
DOCKED: ATOM     11  C   UNL     1       7.639  20.722  16.376 -0.26 -0.00    +0.001 A  
DOCKED: ATOM     12  C   UNL     1       8.459  21.850  16.473 -0.26 -0.00    +0.009 A  
DOCKED: ATOM     13  C   UNL     1       9.844  21.782  16.216 -0.27 +0.00    -0.014 A  
DOCKED: ENDBRANCH   2   3
DOCKED: BRANCH   1  14
DOCKED: ATOM     14  C   UNL     1      12.630  26.952  17.931 -0.20 +0.00    +0.031 C  
DOCKED: BRANCH  14  15
DOCKED: ATOM     15  C   UNL     1      13.993  26.725  18.588 -0.12 +0.00    +0.035 C  
DOCKED: BRANCH  15  22
DOCKED: ATOM     16  C   UNL     1      15.867  26.634  16.849 -0.23 +0.01    +0.031 C  
DOCKED: ATOM     17  C   UNL     1      17.000  25.919  16.109 -0.35 +0.00    +0.008 C  
DOCKED: ATOM     18  C   UNL     1      17.796  24.959  16.983 -0.30 -0.00    +0.027 C  
DOCKED: ATOM     19  C   UNL     1      17.085  23.650  17.130 -0.33 +0.00    -0.027 C  
DOCKED: ATOM     20  C   UNL     1      15.806  23.499  17.496 -0.32 +0.00    -0.004 C  
DOCKED: ATOM     21  C   UNL     1      14.934  24.531  17.996 -0.19 +0.00    -0.001 C  
DOCKED: ATOM     22  C   UNL     1      14.942  25.858  17.767 -0.16 -0.01    -0.069 C  
DOCKED: ENDBRANCH  15  22
DOCKED: ENDBRANCH  14  15
DOCKED: ENDBRANCH   1  14
DOCKED: TORSDOF 4
DOCKED: TER
DOCKED: ENDMDL
________________________________________________________________________________


    FINAL DOCKED STATE:
    ________________________


Run:   31 / 50
Time taken for this run:   0.000s

DOCKED: MODEL        31
DOCKED: USER    Run = 31
DOCKED: USER
DOCKED: USER    Estimated Free Energy of Binding    =  -4.69 kcal/mol  [=(1)+(2)+(3)-(4)]
DOCKED: USER
DOCKED: USER    (1) Final Intermolecular Energy     =  -5.88 kcal/mol
DOCKED: USER        vdW + Hbond + desolv Energy     =  -5.89 kcal/mol
DOCKED: USER        Electrostatic Energy            =  +0.00 kcal/mol
DOCKED: USER        Moving Ligand-Fixed Receptor    =  -5.88 kcal/mol
DOCKED: USER        Moving Ligand-Moving Receptor   =  +0.00 kcal/mol
DOCKED: USER    (2) Final Total Internal Energy     =  -1.28 kcal/mol
DOCKED: USER    (3) Torsional Free Energy           =  +1.19 kcal/mol
DOCKED: USER    (4) Unbound System's Energy         =  -1.28 kcal/mol
DOCKED: USER
DOCKED: USER
DOCKED: REMARK  Name = 
DOCKED: REMARK  4 active torsions:
DOCKED: REMARK  status: ('A' for Active; 'I' for Inactive)
DOCKED: REMARK    1  A    between atoms: C_7  and  C_8
DOCKED: REMARK    2  A    between atoms: C_8  and  C_9
DOCKED: REMARK    3  A    between atoms: C_9  and  C_10
DOCKED: REMARK    4  A    between atoms: C_11  and  C_12
DOCKED: REMARK                            x       y       z     vdW  Elec       q    Type
DOCKED: REMARK                         _______ _______ _______ _____ _____    ______ ____
DOCKED: USER                              x       y       z     vdW  Elec       q    Type
DOCKED: USER                           _______ _______ _______ _____ _____    ______ ____
DOCKED: ROOT
DOCKED: ATOM      1  C   UNL     1       6.046  18.179  16.627 -0.26 +0.00    -0.026 C  
DOCKED: ATOM      2  C   UNL     1       7.326  18.475  16.370 -0.24 +0.00    -0.004 C  
DOCKED: ENDROOT
DOCKED: BRANCH   2   3
DOCKED: ATOM      3  C   UNL     1       7.847  19.824  16.372 -0.31 -0.00    +0.004 C  
DOCKED: ATOM      4  C   UNL     1       9.111  20.171  16.032 -0.37 +0.01    -0.036 C  
DOCKED: ATOM      5  C   UNL     1      10.114  19.106  15.615 -0.42 -0.01    +0.063 C  
DOCKED: ATOM      6  C   UNL     1      11.487  19.582  15.268 -0.43 +0.00    -0.022 C  
DOCKED: ATOM      7  C   UNL     1      11.864  20.861  15.306 -0.43 -0.00    +0.004 C  
DOCKED: ATOM      8  C   UNL     1      10.914  21.902  15.702 -0.27 +0.00    -0.018 A  
DOCKED: ATOM      9  C   UNL     1      11.367  23.232  15.719 -0.30 +0.00    +0.008 A  
DOCKED: ATOM     10  C   UNL     1      10.513  24.270  16.080 -0.33 -0.00    +0.001 A  
DOCKED: ATOM     11  C   UNL     1       9.201  23.988  16.426 -0.27 -0.00    +0.001 A  
DOCKED: ATOM     12  C   UNL     1       8.740  22.668  16.413 -0.28 -0.00    +0.009 A  
DOCKED: ATOM     13  C   UNL     1       9.581  21.595  16.055 -0.29 +0.00    -0.014 A  
DOCKED: ENDBRANCH   2   3
DOCKED: BRANCH   1  14
DOCKED: ATOM     14  C   UNL     1       5.559  16.755  16.648 -0.34 -0.00    +0.031 C  
DOCKED: BRANCH  14  15
DOCKED: ATOM     15  C   UNL     1       5.664  16.134  18.042 -0.20 -0.00    +0.035 C  
DOCKED: BRANCH  15  22
DOCKED: ATOM     16  C   UNL     1       8.055  15.244  18.222 -0.22 +0.00    +0.031 C  
DOCKED: ATOM     17  C   UNL     1       9.525  15.372  18.629 -0.24 +0.00    +0.008 C  
DOCKED: ATOM     18  C   UNL     1      10.086  16.779  18.477 -0.23 -0.00    +0.027 C  
DOCKED: ATOM     19  C   UNL     1       9.704  17.639  19.642 -0.14 +0.00    -0.027 C  
DOCKED: ATOM     20  C   UNL     1       8.462  17.792  20.119 -0.07 +0.00    -0.004 C  
DOCKED: ATOM     21  C   UNL     1       7.248  17.323  19.502 -0.08 +0.00    -0.001 C  
DOCKED: ATOM     22  C   UNL     1       7.041  16.274  18.683 -0.16 +0.00    -0.069 C  
DOCKED: ENDBRANCH  15  22
DOCKED: ENDBRANCH  14  15
DOCKED: ENDBRANCH   1  14
DOCKED: TORSDOF 4
DOCKED: TER
DOCKED: ENDMDL
________________________________________________________________________________


    FINAL DOCKED STATE:
    ________________________


Run:   32 / 50
Time taken for this run:   0.000s

DOCKED: MODEL        32
DOCKED: USER    Run = 32
DOCKED: USER
DOCKED: USER    Estimated Free Energy of Binding    =  -5.46 kcal/mol  [=(1)+(2)+(3)-(4)]
DOCKED: USER
DOCKED: USER    (1) Final Intermolecular Energy     =  -6.65 kcal/mol
DOCKED: USER        vdW + Hbond + desolv Energy     =  -6.66 kcal/mol
DOCKED: USER        Electrostatic Energy            =  +0.01 kcal/mol
DOCKED: USER        Moving Ligand-Fixed Receptor    =  -6.65 kcal/mol
DOCKED: USER        Moving Ligand-Moving Receptor   =  +0.00 kcal/mol
DOCKED: USER    (2) Final Total Internal Energy     =  -0.50 kcal/mol
DOCKED: USER    (3) Torsional Free Energy           =  +1.19 kcal/mol
DOCKED: USER    (4) Unbound System's Energy         =  -0.50 kcal/mol
DOCKED: USER
DOCKED: USER
DOCKED: REMARK  Name = 
DOCKED: REMARK  4 active torsions:
DOCKED: REMARK  status: ('A' for Active; 'I' for Inactive)
DOCKED: REMARK    1  A    between atoms: C_7  and  C_8
DOCKED: REMARK    2  A    between atoms: C_8  and  C_9
DOCKED: REMARK    3  A    between atoms: C_9  and  C_10
DOCKED: REMARK    4  A    between atoms: C_11  and  C_12
DOCKED: REMARK                            x       y       z     vdW  Elec       q    Type
DOCKED: REMARK                         _______ _______ _______ _____ _____    ______ ____
DOCKED: USER                              x       y       z     vdW  Elec       q    Type
DOCKED: USER                           _______ _______ _______ _____ _____    ______ ____
DOCKED: ROOT
DOCKED: ATOM      1  C   UNL     1      14.662  22.085  17.141 -0.37 +0.00    -0.026 C  
DOCKED: ATOM      2  C   UNL     1      15.363  23.084  17.692 -0.32 +0.00    -0.004 C  
DOCKED: ENDROOT
DOCKED: BRANCH   2   3
DOCKED: ATOM      3  C   UNL     1      16.766  23.313  17.425 -0.31 -0.00    +0.004 C  
DOCKED: ATOM      4  C   UNL     1      17.293  24.481  16.987 -0.32 +0.00    -0.036 C  
DOCKED: ATOM      5  C   UNL     1      16.394  25.681  16.727 -0.23 +0.01    +0.063 C  
DOCKED: ATOM      6  C   UNL     1      17.064  26.923  16.235 -0.31 -0.00    -0.022 C  
DOCKED: ATOM      7  C   UNL     1      18.376  27.025  16.019 -0.25 +0.00    +0.004 C  
DOCKED: ATOM      8  C   UNL     1      19.260  25.884  16.265 -0.22 +0.00    -0.018 A  
DOCKED: ATOM      9  C   UNL     1      20.633  26.054  16.023 -0.17 -0.00    +0.008 A  
DOCKED: ATOM     10  C   UNL     1      21.529  25.011  16.243 -0.16 -0.00    +0.001 A  
DOCKED: ATOM     11  C   UNL     1      21.058  23.792  16.705 -0.22 -0.00    +0.001 A  
DOCKED: ATOM     12  C   UNL     1      19.693  23.612  16.947 -0.19 -0.00    +0.009 A  
DOCKED: ATOM     13  C   UNL     1      18.761  24.648  16.733 -0.24 +0.00    -0.014 A  
DOCKED: ENDBRANCH   2   3
DOCKED: BRANCH   1  14
DOCKED: ATOM     14  C   UNL     1      13.195  21.907  17.423 -0.31 -0.00    +0.031 C  
DOCKED: BRANCH  14  15
DOCKED: ATOM     15  C   UNL     1      12.323  22.513  16.322 -0.33 +0.00    +0.035 C  
DOCKED: BRANCH  15  22
DOCKED: ATOM     16  C   UNL     1      11.539  20.206  15.545 -0.43 -0.00    +0.031 C  
DOCKED: ATOM     17  C   UNL     1      10.456  19.155  15.288 -0.51 -0.00    +0.008 C  
DOCKED: ATOM     18  C   UNL     1       9.330  19.166  16.313 -0.37 -0.00    +0.027 C  
DOCKED: ATOM     19  C   UNL     1       8.337  20.243  16.008 -0.35 +0.00    -0.027 C  
DOCKED: ATOM     20  C   UNL     1       8.632  21.529  15.779 -0.38 +0.00    -0.004 C  
DOCKED: ATOM     21  C   UNL     1       9.915  22.155  15.965 -0.35 +0.00    -0.001 C  
DOCKED: ATOM     22  C   UNL     1      11.154  21.631  15.898 -0.33 +0.00    -0.069 C  
DOCKED: ENDBRANCH  15  22
DOCKED: ENDBRANCH  14  15
DOCKED: ENDBRANCH   1  14
DOCKED: TORSDOF 4
DOCKED: TER
DOCKED: ENDMDL
________________________________________________________________________________


    FINAL DOCKED STATE:
    ________________________


Run:   33 / 50
Time taken for this run:   0.000s

DOCKED: MODEL        33
DOCKED: USER    Run = 33
DOCKED: USER
DOCKED: USER    Estimated Free Energy of Binding    =  -5.10 kcal/mol  [=(1)+(2)+(3)-(4)]
DOCKED: USER
DOCKED: USER    (1) Final Intermolecular Energy     =  -6.29 kcal/mol
DOCKED: USER        vdW + Hbond + desolv Energy     =  -6.29 kcal/mol
DOCKED: USER        Electrostatic Energy            =  +0.00 kcal/mol
DOCKED: USER        Moving Ligand-Fixed Receptor    =  -6.29 kcal/mol
DOCKED: USER        Moving Ligand-Moving Receptor   =  +0.00 kcal/mol
DOCKED: USER    (2) Final Total Internal Energy     =  -0.89 kcal/mol
DOCKED: USER    (3) Torsional Free Energy           =  +1.19 kcal/mol
DOCKED: USER    (4) Unbound System's Energy         =  -0.89 kcal/mol
DOCKED: USER
DOCKED: USER
DOCKED: REMARK  Name = 
DOCKED: REMARK  4 active torsions:
DOCKED: REMARK  status: ('A' for Active; 'I' for Inactive)
DOCKED: REMARK    1  A    between atoms: C_7  and  C_8
DOCKED: REMARK    2  A    between atoms: C_8  and  C_9
DOCKED: REMARK    3  A    between atoms: C_9  and  C_10
DOCKED: REMARK    4  A    between atoms: C_11  and  C_12
DOCKED: REMARK                            x       y       z     vdW  Elec       q    Type
DOCKED: REMARK                         _______ _______ _______ _____ _____    ______ ____
DOCKED: USER                              x       y       z     vdW  Elec       q    Type
DOCKED: USER                           _______ _______ _______ _____ _____    ______ ____
DOCKED: ROOT
DOCKED: ATOM      1  C   UNL     1      14.945  22.626  18.279 -0.28 +0.00    -0.026 C  
DOCKED: ATOM      2  C   UNL     1      14.683  22.027  17.111 -0.37 +0.00    -0.004 C  
DOCKED: ENDROOT
DOCKED: BRANCH   2   3
DOCKED: ATOM      3  C   UNL     1      13.408  21.423  16.796 -0.33 -0.00    +0.004 C  
DOCKED: ATOM      4  C   UNL     1      12.254  22.101  16.589 -0.34 +0.00    -0.036 C  
DOCKED: ATOM      5  C   UNL     1      12.227  23.619  16.691 -0.17 +0.01    +0.063 C  
DOCKED: ATOM      6  C   UNL     1      10.907  24.280  16.458 -0.32 +0.00    -0.022 C  
DOCKED: ATOM      7  C   UNL     1       9.784  23.620  16.172 -0.37 -0.00    +0.004 C  
DOCKED: ATOM      8  C   UNL     1       9.788  22.160  16.067 -0.30 +0.00    -0.018 A  
DOCKED: ATOM      9  C   UNL     1       8.576  21.521  15.760 -0.33 -0.00    +0.008 A  
DOCKED: ATOM     10  C   UNL     1       8.512  20.136  15.639 -0.29 -0.00    +0.001 A  
DOCKED: ATOM     11  C   UNL     1       9.659  19.380  15.823 -0.39 -0.00    +0.001 A  
DOCKED: ATOM     12  C   UNL     1      10.871  20.006  16.130 -0.37 -0.00    +0.009 A  
DOCKED: ATOM     13  C   UNL     1      10.967  21.406  16.262 -0.30 +0.00    -0.014 A  
DOCKED: ENDBRANCH   2   3
DOCKED: BRANCH   1  14
DOCKED: ATOM     14  C   UNL     1      16.276  23.273  18.549 -0.22 -0.00    +0.031 C  
DOCKED: BRANCH  14  15
DOCKED: ATOM     15  C   UNL     1      16.909  23.835  17.274 -0.32 -0.00    +0.035 C  
DOCKED: BRANCH  15  22
DOCKED: ATOM     16  C   UNL     1      15.198  25.697  17.660 -0.17 +0.00    +0.031 C  
DOCKED: ATOM     17  C   UNL     1      14.720  27.147  17.547 -0.18 +0.00    +0.008 C  
DOCKED: ATOM     18  C   UNL     1      15.835  28.176  17.677 -0.14 +0.00    +0.027 C  
DOCKED: ATOM     19  C   UNL     1      16.574  28.333  16.385 -0.22 -0.00    -0.027 C  
DOCKED: ATOM     20  C   UNL     1      17.086  27.333  15.656 -0.28 -0.00    -0.004 C  
DOCKED: ATOM     21  C   UNL     1      17.193  25.954  16.058 -0.38 -0.00    -0.001 C  
DOCKED: ATOM     22  C   UNL     1      16.436  25.239  16.912 -0.23 -0.00    -0.069 C  
DOCKED: ENDBRANCH  15  22
DOCKED: ENDBRANCH  14  15
DOCKED: ENDBRANCH   1  14
DOCKED: TORSDOF 4
DOCKED: TER
DOCKED: ENDMDL
________________________________________________________________________________


    FINAL DOCKED STATE:
    ________________________


Run:   34 / 50
Time taken for this run:   0.000s

DOCKED: MODEL        34
DOCKED: USER    Run = 34
DOCKED: USER
DOCKED: USER    Estimated Free Energy of Binding    =  -4.39 kcal/mol  [=(1)+(2)+(3)-(4)]
DOCKED: USER
DOCKED: USER    (1) Final Intermolecular Energy     =  -5.59 kcal/mol
DOCKED: USER        vdW + Hbond + desolv Energy     =  -5.59 kcal/mol
DOCKED: USER        Electrostatic Energy            =  +0.00 kcal/mol
DOCKED: USER        Moving Ligand-Fixed Receptor    =  -5.59 kcal/mol
DOCKED: USER        Moving Ligand-Moving Receptor   =  +0.00 kcal/mol
DOCKED: USER    (2) Final Total Internal Energy     =  -1.38 kcal/mol
DOCKED: USER    (3) Torsional Free Energy           =  +1.19 kcal/mol
DOCKED: USER    (4) Unbound System's Energy         =  -1.38 kcal/mol
DOCKED: USER
DOCKED: USER
DOCKED: REMARK  Name = 
DOCKED: REMARK  4 active torsions:
DOCKED: REMARK  status: ('A' for Active; 'I' for Inactive)
DOCKED: REMARK    1  A    between atoms: C_7  and  C_8
DOCKED: REMARK    2  A    between atoms: C_8  and  C_9
DOCKED: REMARK    3  A    between atoms: C_9  and  C_10
DOCKED: REMARK    4  A    between atoms: C_11  and  C_12
DOCKED: REMARK                            x       y       z     vdW  Elec       q    Type
DOCKED: REMARK                         _______ _______ _______ _____ _____    ______ ____
DOCKED: USER                              x       y       z     vdW  Elec       q    Type
DOCKED: USER                           _______ _______ _______ _____ _____    ______ ____
DOCKED: ROOT
DOCKED: ATOM      1  C   UNL     1      11.118  19.812  16.058 -0.39 +0.00    -0.026 C  
DOCKED: ATOM      2  C   UNL     1      11.908  20.729  15.487 -0.46 +0.00    -0.004 C  
DOCKED: ENDROOT
DOCKED: BRANCH   2   3
DOCKED: ATOM      3  C   UNL     1      12.985  21.397  16.184 -0.42 -0.00    +0.004 C  
DOCKED: ATOM      4  C   UNL     1      12.917  22.643  16.710 -0.27 -0.00    -0.036 C  
DOCKED: ATOM      5  C   UNL     1      11.640  23.460  16.584 -0.26 +0.00    +0.063 C  
DOCKED: ATOM      6  C   UNL     1      11.662  24.828  17.186 -0.24 -0.00    -0.022 C  
DOCKED: ATOM      7  C   UNL     1      12.718  25.350  17.810 -0.19 +0.00    +0.004 C  
DOCKED: ATOM      8  C   UNL     1      13.956  24.580  17.944 -0.15 -0.00    -0.018 A  
DOCKED: ATOM      9  C   UNL     1      15.034  25.181  18.614 -0.10 -0.00    +0.008 A  
DOCKED: ATOM     10  C   UNL     1      16.237  24.501  18.782 -0.11 -0.00    +0.001 A  
DOCKED: ATOM     11  C   UNL     1      16.371  23.216  18.281 -0.23 -0.00    +0.001 A  
DOCKED: ATOM     12  C   UNL     1      15.305  22.609  17.610 -0.30 -0.00    +0.009 A  
DOCKED: ATOM     13  C   UNL     1      14.076  23.272  17.422 -0.19 +0.00    -0.014 A  
DOCKED: ENDBRANCH   2   3
DOCKED: BRANCH   1  14
DOCKED: ATOM     14  C   UNL     1      10.032  19.118  15.282 -0.42 -0.00    +0.031 C  
DOCKED: BRANCH  14  15
DOCKED: ATOM     15  C   UNL     1       8.691  19.152  16.017 -0.34 -0.00    +0.035 C  
DOCKED: BRANCH  15  22
DOCKED: ATOM     16  C   UNL     1       8.012  20.610  18.006 -0.11 -0.01    +0.031 C  
DOCKED: ATOM     17  C   UNL     1       7.788  21.964  18.683 -0.06 -0.00    +0.008 C  
DOCKED: ATOM     18  C   UNL     1       8.794  23.032  18.274 -0.10 -0.01    +0.027 C  
DOCKED: ATOM     19  C   UNL     1       8.422  23.644  16.959 -0.25 +0.01    -0.027 C  
DOCKED: ATOM     20  C   UNL     1       8.137  22.967  15.840 -0.33 +0.00    -0.004 C  
DOCKED: ATOM     21  C   UNL     1       8.313  21.552  15.632 -0.39 +0.00    -0.001 C  
DOCKED: ATOM     22  C   UNL     1       8.291  20.536  16.516 -0.27 +0.01    -0.069 C  
DOCKED: ENDBRANCH  15  22
DOCKED: ENDBRANCH  14  15
DOCKED: ENDBRANCH   1  14
DOCKED: TORSDOF 4
DOCKED: TER
DOCKED: ENDMDL
________________________________________________________________________________


    FINAL DOCKED STATE:
    ________________________


Run:   35 / 50
Time taken for this run:   0.000s

DOCKED: MODEL        35
DOCKED: USER    Run = 35
DOCKED: USER
DOCKED: USER    Estimated Free Energy of Binding    =  -5.21 kcal/mol  [=(1)+(2)+(3)-(4)]
DOCKED: USER
DOCKED: USER    (1) Final Intermolecular Energy     =  -6.40 kcal/mol
DOCKED: USER        vdW + Hbond + desolv Energy     =  -6.40 kcal/mol
DOCKED: USER        Electrostatic Energy            =  +0.00 kcal/mol
DOCKED: USER        Moving Ligand-Fixed Receptor    =  -6.40 kcal/mol
DOCKED: USER        Moving Ligand-Moving Receptor   =  +0.00 kcal/mol
DOCKED: USER    (2) Final Total Internal Energy     =  -0.85 kcal/mol
DOCKED: USER    (3) Torsional Free Energy           =  +1.19 kcal/mol
DOCKED: USER    (4) Unbound System's Energy         =  -0.85 kcal/mol
DOCKED: USER
DOCKED: USER
DOCKED: REMARK  Name = 
DOCKED: REMARK  4 active torsions:
DOCKED: REMARK  status: ('A' for Active; 'I' for Inactive)
DOCKED: REMARK    1  A    between atoms: C_7  and  C_8
DOCKED: REMARK    2  A    between atoms: C_8  and  C_9
DOCKED: REMARK    3  A    between atoms: C_9  and  C_10
DOCKED: REMARK    4  A    between atoms: C_11  and  C_12
DOCKED: REMARK                            x       y       z     vdW  Elec       q    Type
DOCKED: REMARK                         _______ _______ _______ _____ _____    ______ ____
DOCKED: USER                              x       y       z     vdW  Elec       q    Type
DOCKED: USER                           _______ _______ _______ _____ _____    ______ ____
DOCKED: ROOT
DOCKED: ATOM      1  C   UNL     1      15.202  22.371  18.283 -0.27 +0.00    -0.026 C  
DOCKED: ATOM      2  C   UNL     1      14.548  22.454  17.118 -0.35 +0.00    -0.004 C  
DOCKED: ENDROOT
DOCKED: BRANCH   2   3
DOCKED: ATOM      3  C   UNL     1      13.371  21.674  16.809 -0.39 -0.00    +0.004 C  
DOCKED: ATOM      4  C   UNL     1      12.142  22.185  16.559 -0.34 +0.00    -0.036 C  
DOCKED: ATOM      5  C   UNL     1      11.913  23.689  16.599 -0.21 +0.01    +0.063 C  
DOCKED: ATOM      6  C   UNL     1      10.522  24.160  16.320 -0.34 +0.00    -0.022 C  
DOCKED: ATOM      7  C   UNL     1       9.502  23.346  16.046 -0.38 -0.00    +0.004 C  
DOCKED: ATOM      8  C   UNL     1       9.700  21.897  16.000 -0.30 +0.00    -0.018 A  
DOCKED: ATOM      9  C   UNL     1       8.589  21.091  15.703 -0.33 -0.00    +0.008 A  
DOCKED: ATOM     10  C   UNL     1       8.710  19.706  15.637 -0.32 -0.00    +0.001 A  
DOCKED: ATOM     11  C   UNL     1       9.943  19.116  15.868 -0.39 -0.00    +0.001 A  
DOCKED: ATOM     12  C   UNL     1      11.056  19.909  16.167 -0.35 -0.00    +0.009 A  
DOCKED: ATOM     13  C   UNL     1      10.964  21.313  16.243 -0.30 +0.00    -0.014 A  
DOCKED: ENDBRANCH   2   3
DOCKED: BRANCH   1  14
DOCKED: ATOM     14  C   UNL     1      16.403  23.229  18.572 -0.22 -0.00    +0.031 C  
DOCKED: BRANCH  14  15
DOCKED: ATOM     15  C   UNL     1      17.004  23.822  17.296 -0.32 -0.00    +0.035 C  
DOCKED: BRANCH  15  22
DOCKED: ATOM     16  C   UNL     1      15.245  25.627  17.729 -0.17 +0.00    +0.031 C  
DOCKED: ATOM     17  C   UNL     1      14.713  27.059  17.624 -0.18 +0.00    +0.008 C  
DOCKED: ATOM     18  C   UNL     1      15.796  28.126  17.713 -0.14 +0.00    +0.027 C  
DOCKED: ATOM     19  C   UNL     1      16.487  28.301  16.397 -0.22 -0.00    -0.027 C  
DOCKED: ATOM     20  C   UNL     1      17.009  27.315  15.657 -0.28 -0.00    -0.004 C  
DOCKED: ATOM     21  C   UNL     1      17.176  25.943  16.062 -0.38 -0.00    -0.001 C  
DOCKED: ATOM     22  C   UNL     1      16.473  25.207  16.943 -0.24 -0.00    -0.069 C  
DOCKED: ENDBRANCH  15  22
DOCKED: ENDBRANCH  14  15
DOCKED: ENDBRANCH   1  14
DOCKED: TORSDOF 4
DOCKED: TER
DOCKED: ENDMDL
________________________________________________________________________________


    FINAL DOCKED STATE:
    ________________________


Run:   36 / 50
Time taken for this run:   0.000s

DOCKED: MODEL        36
DOCKED: USER    Run = 36
DOCKED: USER
DOCKED: USER    Estimated Free Energy of Binding    =  -5.46 kcal/mol  [=(1)+(2)+(3)-(4)]
DOCKED: USER
DOCKED: USER    (1) Final Intermolecular Energy     =  -6.66 kcal/mol
DOCKED: USER        vdW + Hbond + desolv Energy     =  -6.67 kcal/mol
DOCKED: USER        Electrostatic Energy            =  +0.01 kcal/mol
DOCKED: USER        Moving Ligand-Fixed Receptor    =  -6.66 kcal/mol
DOCKED: USER        Moving Ligand-Moving Receptor   =  +0.00 kcal/mol
DOCKED: USER    (2) Final Total Internal Energy     =  -0.51 kcal/mol
DOCKED: USER    (3) Torsional Free Energy           =  +1.19 kcal/mol
DOCKED: USER    (4) Unbound System's Energy         =  -0.51 kcal/mol
DOCKED: USER
DOCKED: USER
DOCKED: REMARK  Name = 
DOCKED: REMARK  4 active torsions:
DOCKED: REMARK  status: ('A' for Active; 'I' for Inactive)
DOCKED: REMARK    1  A    between atoms: C_7  and  C_8
DOCKED: REMARK    2  A    between atoms: C_8  and  C_9
DOCKED: REMARK    3  A    between atoms: C_9  and  C_10
DOCKED: REMARK    4  A    between atoms: C_11  and  C_12
DOCKED: REMARK                            x       y       z     vdW  Elec       q    Type
DOCKED: REMARK                         _______ _______ _______ _____ _____    ______ ____
DOCKED: USER                              x       y       z     vdW  Elec       q    Type
DOCKED: USER                           _______ _______ _______ _____ _____    ______ ____
DOCKED: ROOT
DOCKED: ATOM      1  C   UNL     1      14.703  22.105  17.135 -0.37 +0.00    -0.026 C  
DOCKED: ATOM      2  C   UNL     1      15.446  22.978  17.827 -0.32 +0.00    -0.004 C  
DOCKED: ENDROOT
DOCKED: BRANCH   2   3
DOCKED: ATOM      3  C   UNL     1      16.830  23.264  17.520 -0.30 -0.00    +0.004 C  
DOCKED: ATOM      4  C   UNL     1      17.296  24.446  17.053 -0.32 +0.00    -0.036 C  
DOCKED: ATOM      5  C   UNL     1      16.339  25.603  16.801 -0.21 +0.01    +0.063 C  
DOCKED: ATOM      6  C   UNL     1      16.943  26.865  16.276 -0.31 -0.00    -0.022 C  
DOCKED: ATOM      7  C   UNL     1      18.243  27.021  16.025 -0.25 +0.00    +0.004 C  
DOCKED: ATOM      8  C   UNL     1      19.181  25.922  16.262 -0.22 +0.00    -0.018 A  
DOCKED: ATOM      9  C   UNL     1      20.539  26.146  15.982 -0.18 -0.00    +0.008 A  
DOCKED: ATOM     10  C   UNL     1      21.484  25.146  16.192 -0.16 -0.00    +0.001 A  
DOCKED: ATOM     11  C   UNL     1      21.078  23.914  16.682 -0.21 -0.00    +0.001 A  
DOCKED: ATOM     12  C   UNL     1      19.729  23.680  16.963 -0.21 -0.00    +0.009 A  
DOCKED: ATOM     13  C   UNL     1      18.748  24.672  16.759 -0.25 +0.00    -0.014 A  
DOCKED: ENDBRANCH   2   3
DOCKED: BRANCH   1  14
DOCKED: ATOM     14  C   UNL     1      13.256  21.868  17.470 -0.31 -0.00    +0.031 C  
DOCKED: BRANCH  14  15
DOCKED: ATOM     15  C   UNL     1      12.317  22.539  16.466 -0.33 +0.00    +0.035 C  
DOCKED: BRANCH  15  22
DOCKED: ATOM     16  C   UNL     1      11.565  20.230  15.661 -0.43 -0.00    +0.031 C  
DOCKED: ATOM     17  C   UNL     1      10.494  19.176  15.368 -0.51 -0.00    +0.008 C  
DOCKED: ATOM     18  C   UNL     1       9.336  19.184  16.356 -0.37 -0.00    +0.027 C  
DOCKED: ATOM     19  C   UNL     1       8.350  20.258  16.021 -0.35 +0.00    -0.027 C  
DOCKED: ATOM     20  C   UNL     1       8.648  21.545  15.802 -0.37 +0.00    -0.004 C  
DOCKED: ATOM     21  C   UNL     1       9.924  22.175  16.030 -0.35 +0.00    -0.001 C  
DOCKED: ATOM     22  C   UNL     1      11.165  21.653  16.003 -0.34 +0.00    -0.069 C  
DOCKED: ENDBRANCH  15  22
DOCKED: ENDBRANCH  14  15
DOCKED: ENDBRANCH   1  14
DOCKED: TORSDOF 4
DOCKED: TER
DOCKED: ENDMDL
________________________________________________________________________________


    FINAL DOCKED STATE:
    ________________________


Run:   37 / 50
Time taken for this run:   0.000s

DOCKED: MODEL        37
DOCKED: USER    Run = 37
DOCKED: USER
DOCKED: USER    Estimated Free Energy of Binding    =  -4.59 kcal/mol  [=(1)+(2)+(3)-(4)]
DOCKED: USER
DOCKED: USER    (1) Final Intermolecular Energy     =  -5.78 kcal/mol
DOCKED: USER        vdW + Hbond + desolv Energy     =  -5.78 kcal/mol
DOCKED: USER        Electrostatic Energy            =  -0.01 kcal/mol
DOCKED: USER        Moving Ligand-Fixed Receptor    =  -5.78 kcal/mol
DOCKED: USER        Moving Ligand-Moving Receptor   =  +0.00 kcal/mol
DOCKED: USER    (2) Final Total Internal Energy     =  -1.28 kcal/mol
DOCKED: USER    (3) Torsional Free Energy           =  +1.19 kcal/mol
DOCKED: USER    (4) Unbound System's Energy         =  -1.28 kcal/mol
DOCKED: USER
DOCKED: USER
DOCKED: REMARK  Name = 
DOCKED: REMARK  4 active torsions:
DOCKED: REMARK  status: ('A' for Active; 'I' for Inactive)
DOCKED: REMARK    1  A    between atoms: C_7  and  C_8
DOCKED: REMARK    2  A    between atoms: C_8  and  C_9
DOCKED: REMARK    3  A    between atoms: C_9  and  C_10
DOCKED: REMARK    4  A    between atoms: C_11  and  C_12
DOCKED: REMARK                            x       y       z     vdW  Elec       q    Type
DOCKED: REMARK                         _______ _______ _______ _____ _____    ______ ____
DOCKED: USER                              x       y       z     vdW  Elec       q    Type
DOCKED: USER                           _______ _______ _______ _____ _____    ______ ____
DOCKED: ROOT
DOCKED: ATOM      1  C   UNL     1      11.275  20.104  15.261 -0.37 +0.00    -0.026 C  
DOCKED: ATOM      2  C   UNL     1      10.756  19.644  16.406 -0.38 +0.00    -0.004 C  
DOCKED: ENDROOT
DOCKED: BRANCH   2   3
DOCKED: ATOM      3  C   UNL     1       9.420  19.102  16.513 -0.36 -0.00    +0.004 C  
DOCKED: ATOM      4  C   UNL     1       8.277  19.818  16.389 -0.32 +0.01    -0.036 C  
DOCKED: ATOM      5  C   UNL     1       8.334  21.315  16.126 -0.31 -0.01    +0.063 C  
DOCKED: ATOM      6  C   UNL     1       7.022  22.023  16.015 -0.32 +0.01    -0.022 C  
DOCKED: ATOM      7  C   UNL     1       5.838  21.421  16.133 -0.26 -0.00    +0.004 C  
DOCKED: ATOM      8  C   UNL     1       5.761  19.980  16.384 -0.10 +0.00    -0.018 A  
DOCKED: ATOM      9  C   UNL     1       4.486  19.401  16.495 -0.15 -0.00    +0.008 A  
DOCKED: ATOM     10  C   UNL     1       4.342  18.036  16.726 -0.20 -0.00    +0.001 A  
DOCKED: ATOM     11  C   UNL     1       5.470  17.241  16.849 -0.27 -0.00    +0.001 A  
DOCKED: ATOM     12  C   UNL     1       6.744  17.807  16.742 -0.23 -0.00    +0.009 A  
DOCKED: ATOM     13  C   UNL     1       6.923  19.186  16.510 -0.17 +0.00    -0.014 A  
DOCKED: ENDBRANCH   2   3
DOCKED: BRANCH   1  14
DOCKED: ATOM     14  C   UNL     1      12.684  20.627  15.192 -0.37 -0.00    +0.031 C  
DOCKED: BRANCH  14  15
DOCKED: ATOM     15  C   UNL     1      12.997  21.583  16.344 -0.40 -0.00    +0.035 C  
DOCKED: BRANCH  15  22
DOCKED: ATOM     16  C   UNL     1      11.455  22.369  18.227 -0.13 -0.00    +0.031 C  
DOCKED: ATOM     17  C   UNL     1      10.428  23.331  18.829 -0.08 -0.00    +0.008 C  
DOCKED: ATOM     18  C   UNL     1      10.632  24.784  18.422 -0.14 -0.01    +0.027 C  
DOCKED: ATOM     19  C   UNL     1      10.060  25.046  17.063 -0.21 +0.01    -0.027 C  
DOCKED: ATOM     20  C   UNL     1      10.307  24.323  15.964 -0.37 +0.00    -0.004 C  
DOCKED: ATOM     21  C   UNL     1      11.300  23.287  15.831 -0.35 -0.00    -0.001 C  
DOCKED: ATOM     22  C   UNL     1      11.823  22.464  16.758 -0.27 +0.00    -0.069 C  
DOCKED: ENDBRANCH  15  22
DOCKED: ENDBRANCH  14  15
DOCKED: ENDBRANCH   1  14
DOCKED: TORSDOF 4
DOCKED: TER
DOCKED: ENDMDL
________________________________________________________________________________


    FINAL DOCKED STATE:
    ________________________


Run:   38 / 50
Time taken for this run:   0.000s

DOCKED: MODEL        38
DOCKED: USER    Run = 38
DOCKED: USER
DOCKED: USER    Estimated Free Energy of Binding    =  -5.16 kcal/mol  [=(1)+(2)+(3)-(4)]
DOCKED: USER
DOCKED: USER    (1) Final Intermolecular Energy     =  -6.35 kcal/mol
DOCKED: USER        vdW + Hbond + desolv Energy     =  -6.35 kcal/mol
DOCKED: USER        Electrostatic Energy            =  +0.00 kcal/mol
DOCKED: USER        Moving Ligand-Fixed Receptor    =  -6.35 kcal/mol
DOCKED: USER        Moving Ligand-Moving Receptor   =  +0.00 kcal/mol
DOCKED: USER    (2) Final Total Internal Energy     =  -0.90 kcal/mol
DOCKED: USER    (3) Torsional Free Energy           =  +1.19 kcal/mol
DOCKED: USER    (4) Unbound System's Energy         =  -0.90 kcal/mol
DOCKED: USER
DOCKED: USER
DOCKED: REMARK  Name = 
DOCKED: REMARK  4 active torsions:
DOCKED: REMARK  status: ('A' for Active; 'I' for Inactive)
DOCKED: REMARK    1  A    between atoms: C_7  and  C_8
DOCKED: REMARK    2  A    between atoms: C_8  and  C_9
DOCKED: REMARK    3  A    between atoms: C_9  and  C_10
DOCKED: REMARK    4  A    between atoms: C_11  and  C_12
DOCKED: REMARK                            x       y       z     vdW  Elec       q    Type
DOCKED: REMARK                         _______ _______ _______ _____ _____    ______ ____
DOCKED: USER                              x       y       z     vdW  Elec       q    Type
DOCKED: USER                           _______ _______ _______ _____ _____    ______ ____
DOCKED: ROOT
DOCKED: ATOM      1  C   UNL     1      15.036  22.295  18.396 -0.27 +0.00    -0.026 C  
DOCKED: ATOM      2  C   UNL     1      14.570  22.149  17.150 -0.39 +0.00    -0.004 C  
DOCKED: ENDROOT
DOCKED: BRANCH   2   3
DOCKED: ATOM      3  C   UNL     1      13.338  21.459  16.837 -0.34 -0.00    +0.004 C  
DOCKED: ATOM      4  C   UNL     1      12.153  22.060  16.578 -0.34 +0.00    -0.036 C  
DOCKED: ATOM      5  C   UNL     1      12.037  23.577  16.612 -0.20 +0.01    +0.063 C  
DOCKED: ATOM      6  C   UNL     1      10.687  24.150  16.324 -0.34 +0.00    -0.022 C  
DOCKED: ATOM      7  C   UNL     1       9.610  23.415  16.047 -0.38 -0.00    +0.004 C  
DOCKED: ATOM      8  C   UNL     1       9.700  21.954  16.007 -0.30 +0.00    -0.018 A  
DOCKED: ATOM      9  C   UNL     1       8.532  21.234  15.706 -0.33 -0.00    +0.008 A  
DOCKED: ATOM     10  C   UNL     1       8.550  19.843  15.645 -0.29 -0.00    +0.001 A  
DOCKED: ATOM     11  C   UNL     1       9.733  19.163  15.885 -0.37 -0.00    +0.001 A  
DOCKED: ATOM     12  C   UNL     1      10.901  19.871  16.187 -0.36 -0.00    +0.009 A  
DOCKED: ATOM     13  C   UNL     1      10.915  21.278  16.258 -0.30 +0.00    -0.014 A  
DOCKED: ENDBRANCH   2   3
DOCKED: BRANCH   1  14
DOCKED: ATOM     14  C   UNL     1      16.305  23.053  18.676 -0.20 -0.00    +0.031 C  
DOCKED: BRANCH  14  15
DOCKED: ATOM     15  C   UNL     1      16.932  23.613  17.397 -0.32 -0.00    +0.035 C  
DOCKED: BRANCH  15  22
DOCKED: ATOM     16  C   UNL     1      15.221  25.470  17.805 -0.17 +0.00    +0.031 C  
DOCKED: ATOM     17  C   UNL     1      14.718  26.909  17.664 -0.18 +0.00    +0.008 C  
DOCKED: ATOM     18  C   UNL     1      15.825  27.954  17.696 -0.14 +0.00    +0.027 C  
DOCKED: ATOM     19  C   UNL     1      16.492  28.071  16.362 -0.23 -0.00    -0.027 C  
DOCKED: ATOM     20  C   UNL     1      16.978  27.050  15.644 -0.29 -0.00    -0.004 C  
DOCKED: ATOM     21  C   UNL     1      17.124  25.688  16.090 -0.36 -0.00    -0.001 C  
DOCKED: ATOM     22  C   UNL     1      16.423  24.997  17.009 -0.24 -0.00    -0.069 C  
DOCKED: ENDBRANCH  15  22
DOCKED: ENDBRANCH  14  15
DOCKED: ENDBRANCH   1  14
DOCKED: TORSDOF 4
DOCKED: TER
DOCKED: ENDMDL
________________________________________________________________________________


    FINAL DOCKED STATE:
    ________________________


Run:   39 / 50
Time taken for this run:   0.000s

DOCKED: MODEL        39
DOCKED: USER    Run = 39
DOCKED: USER
DOCKED: USER    Estimated Free Energy of Binding    =  -5.14 kcal/mol  [=(1)+(2)+(3)-(4)]
DOCKED: USER
DOCKED: USER    (1) Final Intermolecular Energy     =  -6.34 kcal/mol
DOCKED: USER        vdW + Hbond + desolv Energy     =  -6.34 kcal/mol
DOCKED: USER        Electrostatic Energy            =  +0.00 kcal/mol
DOCKED: USER        Moving Ligand-Fixed Receptor    =  -6.34 kcal/mol
DOCKED: USER        Moving Ligand-Moving Receptor   =  +0.00 kcal/mol
DOCKED: USER    (2) Final Total Internal Energy     =  -0.93 kcal/mol
DOCKED: USER    (3) Torsional Free Energy           =  +1.19 kcal/mol
DOCKED: USER    (4) Unbound System's Energy         =  -0.93 kcal/mol
DOCKED: USER
DOCKED: USER
DOCKED: REMARK  Name = 
DOCKED: REMARK  4 active torsions:
DOCKED: REMARK  status: ('A' for Active; 'I' for Inactive)
DOCKED: REMARK    1  A    between atoms: C_7  and  C_8
DOCKED: REMARK    2  A    between atoms: C_8  and  C_9
DOCKED: REMARK    3  A    between atoms: C_9  and  C_10
DOCKED: REMARK    4  A    between atoms: C_11  and  C_12
DOCKED: REMARK                            x       y       z     vdW  Elec       q    Type
DOCKED: REMARK                         _______ _______ _______ _____ _____    ______ ____
DOCKED: USER                              x       y       z     vdW  Elec       q    Type
DOCKED: USER                           _______ _______ _______ _____ _____    ______ ____
DOCKED: ROOT
DOCKED: ATOM      1  C   UNL     1      15.058  22.402  18.381 -0.27 +0.00    -0.026 C  
DOCKED: ATOM      2  C   UNL     1      14.674  22.127  17.129 -0.38 +0.00    -0.004 C  
DOCKED: ENDROOT
DOCKED: BRANCH   2   3
DOCKED: ATOM      3  C   UNL     1      13.408  21.509  16.803 -0.35 -0.00    +0.004 C  
DOCKED: ATOM      4  C   UNL     1      12.242  22.173  16.617 -0.33 +0.00    -0.036 C  
DOCKED: ATOM      5  C   UNL     1      12.190  23.687  16.758 -0.19 +0.01    +0.063 C  
DOCKED: ATOM      6  C   UNL     1      10.859  24.332  16.546 -0.31 +0.00    -0.022 C  
DOCKED: ATOM      7  C   UNL     1       9.746  23.661  16.249 -0.36 -0.00    +0.004 C  
DOCKED: ATOM      8  C   UNL     1       9.774  22.204  16.106 -0.29 +0.00    -0.018 A  
DOCKED: ATOM      9  C   UNL     1       8.571  21.552  15.788 -0.33 -0.00    +0.008 A  
DOCKED: ATOM     10  C   UNL     1       8.530  20.170  15.631 -0.29 -0.00    +0.001 A  
DOCKED: ATOM     11  C   UNL     1       9.690  19.429  15.792 -0.40 -0.00    +0.001 A  
DOCKED: ATOM     12  C   UNL     1      10.892  20.067  16.111 -0.37 -0.00    +0.009 A  
DOCKED: ATOM     13  C   UNL     1      10.966  21.465  16.278 -0.30 +0.00    -0.014 A  
DOCKED: ENDBRANCH   2   3
DOCKED: BRANCH   1  14
DOCKED: ATOM     14  C   UNL     1      16.371  23.079  18.669 -0.20 -0.00    +0.031 C  
DOCKED: BRANCH  14  15
DOCKED: ATOM     15  C   UNL     1      17.002  23.666  17.405 -0.32 -0.00    +0.035 C  
DOCKED: BRANCH  15  22
DOCKED: ATOM     16  C   UNL     1      15.236  25.472  17.808 -0.17 +0.00    +0.031 C  
DOCKED: ATOM     17  C   UNL     1      14.691  26.896  17.663 -0.18 +0.00    +0.008 C  
DOCKED: ATOM     18  C   UNL     1      15.767  27.973  17.694 -0.14 +0.00    +0.027 C  
DOCKED: ATOM     19  C   UNL     1      16.432  28.107  16.361 -0.23 -0.00    -0.027 C  
DOCKED: ATOM     20  C   UNL     1      16.949  27.100  15.646 -0.29 -0.00    -0.004 C  
DOCKED: ATOM     21  C   UNL     1      17.134  25.744  16.095 -0.36 -0.00    -0.001 C  
DOCKED: ATOM     22  C   UNL     1      16.453  25.034  17.014 -0.24 -0.00    -0.069 C  
DOCKED: ENDBRANCH  15  22
DOCKED: ENDBRANCH  14  15
DOCKED: ENDBRANCH   1  14
DOCKED: TORSDOF 4
DOCKED: TER
DOCKED: ENDMDL
________________________________________________________________________________


    FINAL DOCKED STATE:
    ________________________


Run:   40 / 50
Time taken for this run:   0.000s

DOCKED: MODEL        40
DOCKED: USER    Run = 40
DOCKED: USER
DOCKED: USER    Estimated Free Energy of Binding    =  -4.97 kcal/mol  [=(1)+(2)+(3)-(4)]
DOCKED: USER
DOCKED: USER    (1) Final Intermolecular Energy     =  -6.16 kcal/mol
DOCKED: USER        vdW + Hbond + desolv Energy     =  -6.18 kcal/mol
DOCKED: USER        Electrostatic Energy            =  +0.02 kcal/mol
DOCKED: USER        Moving Ligand-Fixed Receptor    =  -6.16 kcal/mol
DOCKED: USER        Moving Ligand-Moving Receptor   =  +0.00 kcal/mol
DOCKED: USER    (2) Final Total Internal Energy     =  -1.03 kcal/mol
DOCKED: USER    (3) Torsional Free Energy           =  +1.19 kcal/mol
DOCKED: USER    (4) Unbound System's Energy         =  -1.03 kcal/mol
DOCKED: USER
DOCKED: USER
DOCKED: REMARK  Name = 
DOCKED: REMARK  4 active torsions:
DOCKED: REMARK  status: ('A' for Active; 'I' for Inactive)
DOCKED: REMARK    1  A    between atoms: C_7  and  C_8
DOCKED: REMARK    2  A    between atoms: C_8  and  C_9
DOCKED: REMARK    3  A    between atoms: C_9  and  C_10
DOCKED: REMARK    4  A    between atoms: C_11  and  C_12
DOCKED: REMARK                            x       y       z     vdW  Elec       q    Type
DOCKED: REMARK                         _______ _______ _______ _____ _____    ______ ____
DOCKED: USER                              x       y       z     vdW  Elec       q    Type
DOCKED: USER                           _______ _______ _______ _____ _____    ______ ____
DOCKED: ROOT
DOCKED: ATOM      1  C   UNL     1      11.375  25.693  17.839 -0.22 +0.00    -0.026 C  
DOCKED: ATOM      2  C   UNL     1      11.168  25.010  16.707 -0.27 -0.00    -0.004 C  
DOCKED: ENDROOT
DOCKED: BRANCH   2   3
DOCKED: ATOM      3  C   UNL     1      10.299  23.857  16.621 -0.31 -0.00    +0.004 C  
DOCKED: ATOM      4  C   UNL     1      10.679  22.625  16.207 -0.33 +0.00    -0.036 C  
DOCKED: ATOM      5  C   UNL     1      12.115  22.368  15.776 -0.32 +0.00    +0.063 C  
DOCKED: ATOM      6  C   UNL     1      12.439  20.981  15.324 -0.50 +0.00    -0.022 C  
DOCKED: ATOM      7  C   UNL     1      11.552  19.986  15.283 -0.45 -0.00    +0.004 C  
DOCKED: ATOM      8  C   UNL     1      10.166  20.210  15.696 -0.34 +0.00    -0.018 A  
DOCKED: ATOM      9  C   UNL     1       9.279  19.123  15.633 -0.29 -0.00    +0.008 A  
DOCKED: ATOM     10  C   UNL     1       7.948  19.266  16.017 -0.24 -0.00    +0.001 A  
DOCKED: ATOM     11  C   UNL     1       7.495  20.497  16.465 -0.24 -0.00    +0.001 A  
DOCKED: ATOM     12  C   UNL     1       8.369  21.586  16.529 -0.25 -0.00    +0.009 A  
DOCKED: ATOM     13  C   UNL     1       9.721  21.473  16.146 -0.28 +0.00    -0.014 A  
DOCKED: ENDBRANCH   2   3
DOCKED: BRANCH   1  14
DOCKED: ATOM     14  C   UNL     1      12.262  26.908  17.871 -0.21 +0.00    +0.031 C  
DOCKED: BRANCH  14  15
DOCKED: ATOM     15  C   UNL     1      13.577  26.639  18.605 -0.13 -0.00    +0.035 C  
DOCKED: BRANCH  15  22
DOCKED: ATOM     16  C   UNL     1      15.666  26.376  17.152 -0.21 +0.00    +0.031 C  
DOCKED: ATOM     17  C   UNL     1      16.795  25.547  16.534 -0.32 +0.00    +0.008 C  
DOCKED: ATOM     18  C   UNL     1      17.315  24.440  17.440 -0.29 -0.00    +0.027 C  
DOCKED: ATOM     19  C   UNL     1      16.423  23.239  17.388 -0.31 +0.00    -0.027 C  
DOCKED: ATOM     20  C   UNL     1      15.095  23.250  17.554 -0.31 +0.00    -0.004 C  
DOCKED: ATOM     21  C   UNL     1      14.301  24.368  17.997 -0.18 -0.00    -0.001 C  
DOCKED: ATOM     22  C   UNL     1      14.517  25.690  17.869 -0.16 -0.01    -0.069 C  
DOCKED: ENDBRANCH  15  22
DOCKED: ENDBRANCH  14  15
DOCKED: ENDBRANCH   1  14
DOCKED: TORSDOF 4
DOCKED: TER
DOCKED: ENDMDL
________________________________________________________________________________


    FINAL DOCKED STATE:
    ________________________


Run:   41 / 50
Time taken for this run:   0.000s

DOCKED: MODEL        41
DOCKED: USER    Run = 41
DOCKED: USER
DOCKED: USER    Estimated Free Energy of Binding    =  -5.48 kcal/mol  [=(1)+(2)+(3)-(4)]
DOCKED: USER
DOCKED: USER    (1) Final Intermolecular Energy     =  -6.67 kcal/mol
DOCKED: USER        vdW + Hbond + desolv Energy     =  -6.68 kcal/mol
DOCKED: USER        Electrostatic Energy            =  +0.01 kcal/mol
DOCKED: USER        Moving Ligand-Fixed Receptor    =  -6.67 kcal/mol
DOCKED: USER        Moving Ligand-Moving Receptor   =  +0.00 kcal/mol
DOCKED: USER    (2) Final Total Internal Energy     =  -0.51 kcal/mol
DOCKED: USER    (3) Torsional Free Energy           =  +1.19 kcal/mol
DOCKED: USER    (4) Unbound System's Energy         =  -0.51 kcal/mol
DOCKED: USER
DOCKED: USER
DOCKED: REMARK  Name = 
DOCKED: REMARK  4 active torsions:
DOCKED: REMARK  status: ('A' for Active; 'I' for Inactive)
DOCKED: REMARK    1  A    between atoms: C_7  and  C_8
DOCKED: REMARK    2  A    between atoms: C_8  and  C_9
DOCKED: REMARK    3  A    between atoms: C_9  and  C_10
DOCKED: REMARK    4  A    between atoms: C_11  and  C_12
DOCKED: REMARK                            x       y       z     vdW  Elec       q    Type
DOCKED: REMARK                         _______ _______ _______ _____ _____    ______ ____
DOCKED: USER                              x       y       z     vdW  Elec       q    Type
DOCKED: USER                           _______ _______ _______ _____ _____    ______ ____
DOCKED: ROOT
DOCKED: ATOM      1  C   UNL     1      14.682  22.091  17.165 -0.37 +0.00    -0.026 C  
DOCKED: ATOM      2  C   UNL     1      15.405  23.037  17.776 -0.32 +0.00    -0.004 C  
DOCKED: ENDROOT
DOCKED: BRANCH   2   3
DOCKED: ATOM      3  C   UNL     1      16.799  23.288  17.480 -0.31 -0.00    +0.004 C  
DOCKED: ATOM      4  C   UNL     1      17.300  24.463  17.031 -0.32 +0.00    -0.036 C  
DOCKED: ATOM      5  C   UNL     1      16.378  25.649  16.789 -0.23 +0.01    +0.063 C  
DOCKED: ATOM      6  C   UNL     1      17.020  26.900  16.283 -0.31 -0.00    -0.022 C  
DOCKED: ATOM      7  C   UNL     1      18.325  27.022  16.041 -0.25 +0.00    +0.004 C  
DOCKED: ATOM      8  C   UNL     1      19.230  25.895  16.270 -0.22 +0.00    -0.018 A  
DOCKED: ATOM      9  C   UNL     1      20.596  26.084  16.000 -0.18 -0.00    +0.008 A  
DOCKED: ATOM     10  C   UNL     1      21.511  25.055  16.203 -0.16 -0.00    +0.001 A  
DOCKED: ATOM     11  C   UNL     1      21.068  23.830  16.675 -0.22 -0.00    +0.001 A  
DOCKED: ATOM     12  C   UNL     1      19.711  23.630  16.945 -0.20 -0.00    +0.009 A  
DOCKED: ATOM     13  C   UNL     1      18.760  24.651  16.748 -0.24 +0.00    -0.014 A  
DOCKED: ENDBRANCH   2   3
DOCKED: BRANCH   1  14
DOCKED: ATOM     14  C   UNL     1      13.224  21.891  17.482 -0.31 -0.00    +0.031 C  
DOCKED: BRANCH  14  15
DOCKED: ATOM     15  C   UNL     1      12.317  22.546  16.439 -0.33 +0.00    +0.035 C  
DOCKED: BRANCH  15  22
DOCKED: ATOM     16  C   UNL     1      11.553  20.236  15.648 -0.44 -0.00    +0.031 C  
DOCKED: ATOM     17  C   UNL     1      10.476  19.186  15.360 -0.50 -0.00    +0.008 C  
DOCKED: ATOM     18  C   UNL     1       9.316  19.207  16.346 -0.37 -0.00    +0.027 C  
DOCKED: ATOM     19  C   UNL     1       8.337  20.285  16.002 -0.35 +0.00    -0.027 C  
DOCKED: ATOM     20  C   UNL     1       8.643  21.569  15.776 -0.38 +0.00    -0.004 C  
DOCKED: ATOM     21  C   UNL     1       9.922  22.192  16.001 -0.35 +0.00    -0.001 C  
DOCKED: ATOM     22  C   UNL     1      11.160  21.664  15.980 -0.34 +0.00    -0.069 C  
DOCKED: ENDBRANCH  15  22
DOCKED: ENDBRANCH  14  15
DOCKED: ENDBRANCH   1  14
DOCKED: TORSDOF 4
DOCKED: TER
DOCKED: ENDMDL
________________________________________________________________________________


    FINAL DOCKED STATE:
    ________________________


Run:   42 / 50
Time taken for this run:   0.000s

DOCKED: MODEL        42
DOCKED: USER    Run = 42
DOCKED: USER
DOCKED: USER    Estimated Free Energy of Binding    =  -5.16 kcal/mol  [=(1)+(2)+(3)-(4)]
DOCKED: USER
DOCKED: USER    (1) Final Intermolecular Energy     =  -6.35 kcal/mol
DOCKED: USER        vdW + Hbond + desolv Energy     =  -6.36 kcal/mol
DOCKED: USER        Electrostatic Energy            =  +0.00 kcal/mol
DOCKED: USER        Moving Ligand-Fixed Receptor    =  -6.35 kcal/mol
DOCKED: USER        Moving Ligand-Moving Receptor   =  +0.00 kcal/mol
DOCKED: USER    (2) Final Total Internal Energy     =  -0.76 kcal/mol
DOCKED: USER    (3) Torsional Free Energy           =  +1.19 kcal/mol
DOCKED: USER    (4) Unbound System's Energy         =  -0.76 kcal/mol
DOCKED: USER
DOCKED: USER
DOCKED: REMARK  Name = 
DOCKED: REMARK  4 active torsions:
DOCKED: REMARK  status: ('A' for Active; 'I' for Inactive)
DOCKED: REMARK    1  A    between atoms: C_7  and  C_8
DOCKED: REMARK    2  A    between atoms: C_8  and  C_9
DOCKED: REMARK    3  A    between atoms: C_9  and  C_10
DOCKED: REMARK    4  A    between atoms: C_11  and  C_12
DOCKED: REMARK                            x       y       z     vdW  Elec       q    Type
DOCKED: REMARK                         _______ _______ _______ _____ _____    ______ ____
DOCKED: USER                              x       y       z     vdW  Elec       q    Type
DOCKED: USER                           _______ _______ _______ _____ _____    ______ ____
DOCKED: ROOT
DOCKED: ATOM      1  C   UNL     1      15.343  22.484  18.014 -0.29 +0.00    -0.026 C  
DOCKED: ATOM      2  C   UNL     1      14.293  22.856  17.271 -0.29 +0.00    -0.004 C  
DOCKED: ENDROOT
DOCKED: BRANCH   2   3
DOCKED: ATOM      3  C   UNL     1      13.197  21.972  16.942 -0.37 -0.00    +0.004 C  
DOCKED: ATOM      4  C   UNL     1      11.947  22.372  16.609 -0.31 +0.00    -0.036 C  
DOCKED: ATOM      5  C   UNL     1      11.601  23.853  16.567 -0.24 +0.00    +0.063 C  
DOCKED: ATOM      6  C   UNL     1      10.194  24.200  16.199 -0.35 +0.00    -0.022 C  
DOCKED: ATOM      7  C   UNL     1       9.255  23.296  15.915 -0.38 -0.00    +0.004 C  
DOCKED: ATOM      8  C   UNL     1       9.568  21.866  15.947 -0.29 +0.00    -0.018 A  
DOCKED: ATOM      9  C   UNL     1       8.539  20.963  15.634 -0.33 -0.00    +0.008 A  
DOCKED: ATOM     10  C   UNL     1       8.771  19.590  15.639 -0.33 -0.00    +0.001 A  
DOCKED: ATOM     11  C   UNL     1      10.032  19.111  15.957 -0.39 -0.00    +0.001 A  
DOCKED: ATOM     12  C   UNL     1      11.063  20.002  16.272 -0.33 -0.00    +0.009 A  
DOCKED: ATOM     13  C   UNL     1      10.859  21.397  16.278 -0.29 +0.00    -0.014 A  
DOCKED: ENDBRANCH   2   3
DOCKED: BRANCH   1  14
DOCKED: ATOM     14  C   UNL     1      16.443  23.451  18.358 -0.23 -0.00    +0.031 C  
DOCKED: BRANCH  14  15
DOCKED: ATOM     15  C   UNL     1      17.063  24.082  17.111 -0.33 -0.00    +0.035 C  
DOCKED: BRANCH  15  22
DOCKED: ATOM     16  C   UNL     1      15.318  25.891  17.583 -0.19 +0.00    +0.031 C  
DOCKED: ATOM     17  C   UNL     1      14.809  27.334  17.532 -0.18 +0.00    +0.008 C  
DOCKED: ATOM     18  C   UNL     1      15.903  28.379  17.696 -0.12 +0.00    +0.027 C  
DOCKED: ATOM     19  C   UNL     1      16.629  28.604  16.406 -0.20 -0.00    -0.027 C  
DOCKED: ATOM     20  C   UNL     1      17.157  27.645  15.635 -0.28 -0.00    -0.004 C  
DOCKED: ATOM     21  C   UNL     1      17.295  26.254  15.980 -0.36 -0.00    -0.001 C  
DOCKED: ATOM     22  C   UNL     1      16.559  25.489  16.809 -0.26 -0.00    -0.069 C  
DOCKED: ENDBRANCH  15  22
DOCKED: ENDBRANCH  14  15
DOCKED: ENDBRANCH   1  14
DOCKED: TORSDOF 4
DOCKED: TER
DOCKED: ENDMDL
________________________________________________________________________________


    FINAL DOCKED STATE:
    ________________________


Run:   43 / 50
Time taken for this run:   0.000s

DOCKED: MODEL        43
DOCKED: USER    Run = 43
DOCKED: USER
DOCKED: USER    Estimated Free Energy of Binding    =  -4.96 kcal/mol  [=(1)+(2)+(3)-(4)]
DOCKED: USER
DOCKED: USER    (1) Final Intermolecular Energy     =  -6.16 kcal/mol
DOCKED: USER        vdW + Hbond + desolv Energy     =  -6.17 kcal/mol
DOCKED: USER        Electrostatic Energy            =  +0.01 kcal/mol
DOCKED: USER        Moving Ligand-Fixed Receptor    =  -6.16 kcal/mol
DOCKED: USER        Moving Ligand-Moving Receptor   =  +0.00 kcal/mol
DOCKED: USER    (2) Final Total Internal Energy     =  -1.04 kcal/mol
DOCKED: USER    (3) Torsional Free Energy           =  +1.19 kcal/mol
DOCKED: USER    (4) Unbound System's Energy         =  -1.04 kcal/mol
DOCKED: USER
DOCKED: USER
DOCKED: REMARK  Name = 
DOCKED: REMARK  4 active torsions:
DOCKED: REMARK  status: ('A' for Active; 'I' for Inactive)
DOCKED: REMARK    1  A    between atoms: C_7  and  C_8
DOCKED: REMARK    2  A    between atoms: C_8  and  C_9
DOCKED: REMARK    3  A    between atoms: C_9  and  C_10
DOCKED: REMARK    4  A    between atoms: C_11  and  C_12
DOCKED: REMARK                            x       y       z     vdW  Elec       q    Type
DOCKED: REMARK                         _______ _______ _______ _____ _____    ______ ____
DOCKED: USER                              x       y       z     vdW  Elec       q    Type
DOCKED: USER                           _______ _______ _______ _____ _____    ______ ____
DOCKED: ROOT
DOCKED: ATOM      1  C   UNL     1      11.681  25.761  17.873 -0.22 +0.00    -0.026 C  
DOCKED: ATOM      2  C   UNL     1      11.022  25.433  16.756 -0.25 -0.00    -0.004 C  
DOCKED: ENDROOT
DOCKED: BRANCH   2   3
DOCKED: ATOM      3  C   UNL     1      10.224  24.234  16.626 -0.32 -0.00    +0.004 C  
DOCKED: ATOM      4  C   UNL     1      10.709  23.004  16.331 -0.32 +0.00    -0.036 C  
DOCKED: ATOM      5  C   UNL     1      12.198  22.802  16.098 -0.25 +0.01    +0.063 C  
DOCKED: ATOM      6  C   UNL     1      12.639  21.412  15.768 -0.46 +0.00    -0.022 C  
DOCKED: ATOM      7  C   UNL     1      11.811  20.372  15.671 -0.40 -0.00    +0.004 C  
DOCKED: ATOM      8  C   UNL     1      10.375  20.544  15.894 -0.32 +0.00    -0.018 A  
DOCKED: ATOM      9  C   UNL     1       9.553  19.411  15.782 -0.38 -0.00    +0.008 A  
DOCKED: ATOM     10  C   UNL     1       8.179  19.504  15.988 -0.30 -0.00    +0.001 A  
DOCKED: ATOM     11  C   UNL     1       7.618  20.730  16.307 -0.26 -0.00    +0.001 A  
DOCKED: ATOM     12  C   UNL     1       8.426  21.865  16.420 -0.27 -0.00    +0.009 A  
DOCKED: ATOM     13  C   UNL     1       9.819  21.803  16.215 -0.27 +0.00    -0.014 A  
DOCKED: ENDBRANCH   2   3
DOCKED: BRANCH   1  14
DOCKED: ATOM     14  C   UNL     1      12.471  27.038  17.972 -0.20 +0.00    +0.031 C  
DOCKED: BRANCH  14  15
DOCKED: ATOM     15  C   UNL     1      13.847  26.814  18.602 -0.12 -0.00    +0.035 C  
DOCKED: BRANCH  15  22
DOCKED: ATOM     16  C   UNL     1      15.735  26.636  16.886 -0.21 +0.01    +0.031 C  
DOCKED: ATOM     17  C   UNL     1      16.841  25.867  16.158 -0.33 +0.00    +0.008 C  
DOCKED: ATOM     18  C   UNL     1      17.578  24.867  17.038 -0.30 -0.00    +0.027 C  
DOCKED: ATOM     19  C   UNL     1      16.801  23.594  17.172 -0.32 +0.00    -0.027 C  
DOCKED: ATOM     20  C   UNL     1      15.512  23.505  17.523 -0.31 +0.00    -0.004 C  
DOCKED: ATOM     21  C   UNL     1      14.686  24.577  18.015 -0.18 -0.00    -0.001 C  
DOCKED: ATOM     22  C   UNL     1      14.762  25.903  17.791 -0.16 -0.01    -0.069 C  
DOCKED: ENDBRANCH  15  22
DOCKED: ENDBRANCH  14  15
DOCKED: ENDBRANCH   1  14
DOCKED: TORSDOF 4
DOCKED: TER
DOCKED: ENDMDL
________________________________________________________________________________


    FINAL DOCKED STATE:
    ________________________


Run:   44 / 50
Time taken for this run:   0.000s

DOCKED: MODEL        44
DOCKED: USER    Run = 44
DOCKED: USER
DOCKED: USER    Estimated Free Energy of Binding    =  -4.88 kcal/mol  [=(1)+(2)+(3)-(4)]
DOCKED: USER
DOCKED: USER    (1) Final Intermolecular Energy     =  -6.07 kcal/mol
DOCKED: USER        vdW + Hbond + desolv Energy     =  -6.07 kcal/mol
DOCKED: USER        Electrostatic Energy            =  -0.00 kcal/mol
DOCKED: USER        Moving Ligand-Fixed Receptor    =  -6.07 kcal/mol
DOCKED: USER        Moving Ligand-Moving Receptor   =  +0.00 kcal/mol
DOCKED: USER    (2) Final Total Internal Energy     =  -1.13 kcal/mol
DOCKED: USER    (3) Torsional Free Energy           =  +1.19 kcal/mol
DOCKED: USER    (4) Unbound System's Energy         =  -1.13 kcal/mol
DOCKED: USER
DOCKED: USER
DOCKED: REMARK  Name = 
DOCKED: REMARK  4 active torsions:
DOCKED: REMARK  status: ('A' for Active; 'I' for Inactive)
DOCKED: REMARK    1  A    between atoms: C_7  and  C_8
DOCKED: REMARK    2  A    between atoms: C_8  and  C_9
DOCKED: REMARK    3  A    between atoms: C_9  and  C_10
DOCKED: REMARK    4  A    between atoms: C_11  and  C_12
DOCKED: REMARK                            x       y       z     vdW  Elec       q    Type
DOCKED: REMARK                         _______ _______ _______ _____ _____    ______ ____
DOCKED: USER                              x       y       z     vdW  Elec       q    Type
DOCKED: USER                           _______ _______ _______ _____ _____    ______ ____
DOCKED: ROOT
DOCKED: ATOM      1  C   UNL     1      11.254  20.011  15.264 -0.40 +0.00    -0.026 C  
DOCKED: ATOM      2  C   UNL     1      10.710  19.669  16.438 -0.38 +0.00    -0.004 C  
DOCKED: ENDROOT
DOCKED: BRANCH   2   3
DOCKED: ATOM      3  C   UNL     1       9.407  19.055  16.562 -0.35 -0.00    +0.004 C  
DOCKED: ATOM      4  C   UNL     1       8.225  19.700  16.418 -0.32 +0.00    -0.036 C  
DOCKED: ATOM      5  C   UNL     1       8.196  21.189  16.110 -0.31 -0.01    +0.063 C  
DOCKED: ATOM      6  C   UNL     1       6.846  21.817  15.979 -0.31 +0.01    -0.022 C  
DOCKED: ATOM      7  C   UNL     1       5.699  21.152  16.116 -0.23 -0.00    +0.004 C  
DOCKED: ATOM      8  C   UNL     1       5.704  19.717  16.410 -0.08 +0.00    -0.018 A  
DOCKED: ATOM      9  C   UNL     1       4.465  19.070  16.540 -0.16 -0.00    +0.008 A  
DOCKED: ATOM     10  C   UNL     1       4.399  17.706  16.812 -0.22 -0.00    +0.001 A  
DOCKED: ATOM     11  C   UNL     1       5.571  16.981  16.958 -0.27 -0.00    +0.001 A  
DOCKED: ATOM     12  C   UNL     1       6.810  17.616  16.833 -0.20 -0.00    +0.009 A  
DOCKED: ATOM     13  C   UNL     1       6.910  18.995  16.559 -0.19 +0.00    -0.014 A  
DOCKED: ENDBRANCH   2   3
DOCKED: BRANCH   1  14
DOCKED: ATOM     14  C   UNL     1      12.629  20.617  15.183 -0.38 -0.00    +0.031 C  
DOCKED: BRANCH  14  15
DOCKED: ATOM     15  C   UNL     1      12.936  21.507  16.389 -0.39 -0.00    +0.035 C  
DOCKED: BRANCH  15  22
DOCKED: ATOM     16  C   UNL     1      11.171  22.980  15.267 -0.33 +0.00    +0.031 C  
DOCKED: ATOM     17  C   UNL     1      10.134  24.106  15.279 -0.40 -0.00    +0.008 C  
DOCKED: ATOM     18  C   UNL     1       9.364  24.220  16.588 -0.25 -0.01    +0.027 C  
DOCKED: ATOM     19  C   UNL     1      10.159  24.960  17.617 -0.22 +0.01    -0.027 C  
DOCKED: ATOM     20  C   UNL     1      11.424  24.689  17.963 -0.18 +0.00    -0.004 C  
DOCKED: ATOM     21  C   UNL     1      12.190  23.537  17.560 -0.21 +0.00    -0.001 C  
DOCKED: ATOM     22  C   UNL     1      12.098  22.780  16.451 -0.29 -0.00    -0.069 C  
DOCKED: ENDBRANCH  15  22
DOCKED: ENDBRANCH  14  15
DOCKED: ENDBRANCH   1  14
DOCKED: TORSDOF 4
DOCKED: TER
DOCKED: ENDMDL
________________________________________________________________________________


    FINAL DOCKED STATE:
    ________________________


Run:   45 / 50
Time taken for this run:   0.000s

DOCKED: MODEL        45
DOCKED: USER    Run = 45
DOCKED: USER
DOCKED: USER    Estimated Free Energy of Binding    =  -5.31 kcal/mol  [=(1)+(2)+(3)-(4)]
DOCKED: USER
DOCKED: USER    (1) Final Intermolecular Energy     =  -6.51 kcal/mol
DOCKED: USER        vdW + Hbond + desolv Energy     =  -6.49 kcal/mol
DOCKED: USER        Electrostatic Energy            =  -0.01 kcal/mol
DOCKED: USER        Moving Ligand-Fixed Receptor    =  -6.51 kcal/mol
DOCKED: USER        Moving Ligand-Moving Receptor   =  +0.00 kcal/mol
DOCKED: USER    (2) Final Total Internal Energy     =  -0.65 kcal/mol
DOCKED: USER    (3) Torsional Free Energy           =  +1.19 kcal/mol
DOCKED: USER    (4) Unbound System's Energy         =  -0.65 kcal/mol
DOCKED: USER
DOCKED: USER
DOCKED: REMARK  Name = 
DOCKED: REMARK  4 active torsions:
DOCKED: REMARK  status: ('A' for Active; 'I' for Inactive)
DOCKED: REMARK    1  A    between atoms: C_7  and  C_8
DOCKED: REMARK    2  A    between atoms: C_8  and  C_9
DOCKED: REMARK    3  A    between atoms: C_9  and  C_10
DOCKED: REMARK    4  A    between atoms: C_11  and  C_12
DOCKED: REMARK                            x       y       z     vdW  Elec       q    Type
DOCKED: REMARK                         _______ _______ _______ _____ _____    ______ ____
DOCKED: USER                              x       y       z     vdW  Elec       q    Type
DOCKED: USER                           _______ _______ _______ _____ _____    ______ ____
DOCKED: ROOT
DOCKED: ATOM      1  C   UNL     1      13.292  22.039  17.154 -0.35 +0.00    -0.026 C  
DOCKED: ATOM      2  C   UNL     1      12.601  22.362  16.055 -0.28 -0.00    -0.004 C  
DOCKED: ENDROOT
DOCKED: BRANCH   2   3
DOCKED: ATOM      3  C   UNL     1      11.171  22.581  16.049 -0.36 -0.00    +0.004 C  
DOCKED: ATOM      4  C   UNL     1      10.234  21.604  16.045 -0.32 +0.00    -0.036 C  
DOCKED: ATOM      5  C   UNL     1      10.651  20.140  16.036 -0.40 -0.01    +0.063 C  
DOCKED: ATOM      6  C   UNL     1       9.548  19.132  16.021 -0.39 +0.00    -0.022 C  
DOCKED: ATOM      7  C   UNL     1       8.252  19.447  16.015 -0.36 -0.00    +0.004 C  
DOCKED: ATOM      8  C   UNL     1       7.829  20.848  16.027 -0.29 +0.00    -0.018 A  
DOCKED: ATOM      9  C   UNL     1       6.450  21.118  16.023 -0.21 -0.00    +0.008 A  
DOCKED: ATOM     10  C   UNL     1       5.981  22.428  16.041 -0.27 -0.00    +0.001 A  
DOCKED: ATOM     11  C   UNL     1       6.885  23.478  16.060 -0.19 -0.00    +0.001 A  
DOCKED: ATOM     12  C   UNL     1       8.260  23.221  16.061 -0.30 -0.00    +0.009 A  
DOCKED: ATOM     13  C   UNL     1       8.766  21.906  16.042 -0.32 +0.00    -0.014 A  
DOCKED: ENDBRANCH   2   3
DOCKED: BRANCH   1  14
DOCKED: ATOM     14  C   UNL     1      14.785  21.856  17.117 -0.33 -0.01    +0.031 C  
DOCKED: BRANCH  14  15
DOCKED: ATOM     15  C   UNL     1      15.483  22.607  18.252 -0.26 -0.01    +0.035 C  
DOCKED: BRANCH  15  22
DOCKED: ATOM     16  C   UNL     1      17.486  23.878  17.294 -0.32 -0.00    +0.031 C  
DOCKED: ATOM     17  C   UNL     1      18.137  25.111  16.662 -0.31 -0.00    +0.008 C  
DOCKED: ATOM     18  C   UNL     1      17.230  25.857  15.693 -0.31 +0.00    +0.027 C  
DOCKED: ATOM     19  C   UNL     1      16.279  26.751  16.426 -0.27 -0.01    -0.027 C  
DOCKED: ATOM     20  C   UNL     1      15.494  26.381  17.445 -0.21 -0.00    -0.004 C  
DOCKED: ATOM     21  C   UNL     1      15.272  25.033  17.903 -0.19 -0.00    -0.001 C  
DOCKED: ATOM     22  C   UNL     1      16.072  23.952  17.838 -0.25 +0.00    -0.069 C  
DOCKED: ENDBRANCH  15  22
DOCKED: ENDBRANCH  14  15
DOCKED: ENDBRANCH   1  14
DOCKED: TORSDOF 4
DOCKED: TER
DOCKED: ENDMDL
________________________________________________________________________________


    FINAL DOCKED STATE:
    ________________________


Run:   46 / 50
Time taken for this run:   0.000s

DOCKED: MODEL        46
DOCKED: USER    Run = 46
DOCKED: USER
DOCKED: USER    Estimated Free Energy of Binding    =  -4.96 kcal/mol  [=(1)+(2)+(3)-(4)]
DOCKED: USER
DOCKED: USER    (1) Final Intermolecular Energy     =  -6.15 kcal/mol
DOCKED: USER        vdW + Hbond + desolv Energy     =  -6.17 kcal/mol
DOCKED: USER        Electrostatic Energy            =  +0.01 kcal/mol
DOCKED: USER        Moving Ligand-Fixed Receptor    =  -6.15 kcal/mol
DOCKED: USER        Moving Ligand-Moving Receptor   =  +0.00 kcal/mol
DOCKED: USER    (2) Final Total Internal Energy     =  -1.06 kcal/mol
DOCKED: USER    (3) Torsional Free Energy           =  +1.19 kcal/mol
DOCKED: USER    (4) Unbound System's Energy         =  -1.06 kcal/mol
DOCKED: USER
DOCKED: USER
DOCKED: REMARK  Name = 
DOCKED: REMARK  4 active torsions:
DOCKED: REMARK  status: ('A' for Active; 'I' for Inactive)
DOCKED: REMARK    1  A    between atoms: C_7  and  C_8
DOCKED: REMARK    2  A    between atoms: C_8  and  C_9
DOCKED: REMARK    3  A    between atoms: C_9  and  C_10
DOCKED: REMARK    4  A    between atoms: C_11  and  C_12
DOCKED: REMARK                            x       y       z     vdW  Elec       q    Type
DOCKED: REMARK                         _______ _______ _______ _____ _____    ______ ____
DOCKED: USER                              x       y       z     vdW  Elec       q    Type
DOCKED: USER                           _______ _______ _______ _____ _____    ______ ____
DOCKED: ROOT
DOCKED: ATOM      1  C   UNL     1      11.632  25.797  17.916 -0.22 +0.00    -0.026 C  
DOCKED: ATOM      2  C   UNL     1      11.101  25.379  16.761 -0.25 -0.00    -0.004 C  
DOCKED: ENDROOT
DOCKED: BRANCH   2   3
DOCKED: ATOM      3  C   UNL     1      10.294  24.185  16.642 -0.32 -0.00    +0.004 C  
DOCKED: ATOM      4  C   UNL     1      10.764  22.955  16.327 -0.32 +0.00    -0.036 C  
DOCKED: ATOM      5  C   UNL     1      12.247  22.746  16.055 -0.25 +0.01    +0.063 C  
DOCKED: ATOM      6  C   UNL     1      12.671  21.357  15.704 -0.48 +0.00    -0.022 C  
DOCKED: ATOM      7  C   UNL     1      11.835  20.321  15.621 -0.40 -0.00    +0.004 C  
DOCKED: ATOM      8  C   UNL     1      10.406  20.500  15.881 -0.33 +0.00    -0.018 A  
DOCKED: ATOM      9  C   UNL     1       9.575  19.372  15.781 -0.38 -0.00    +0.008 A  
DOCKED: ATOM     10  C   UNL     1       8.207  19.470  16.022 -0.31 -0.00    +0.001 A  
DOCKED: ATOM     11  C   UNL     1       7.661  20.697  16.364 -0.26 -0.00    +0.001 A  
DOCKED: ATOM     12  C   UNL     1       8.478  21.827  16.464 -0.26 -0.00    +0.009 A  
DOCKED: ATOM     13  C   UNL     1       9.866  21.760  16.224 -0.27 +0.00    -0.014 A  
DOCKED: ENDBRANCH   2   3
DOCKED: BRANCH   1  14
DOCKED: ATOM     14  C   UNL     1      12.437  27.066  17.996 -0.20 +0.00    +0.031 C  
DOCKED: BRANCH  14  15
DOCKED: ATOM     15  C   UNL     1      13.811  26.834  18.627 -0.12 -0.00    +0.035 C  
DOCKED: BRANCH  15  22
DOCKED: ATOM     16  C   UNL     1      15.722  26.658  16.935 -0.21 +0.01    +0.031 C  
DOCKED: ATOM     17  C   UNL     1      16.827  25.886  16.209 -0.33 +0.00    +0.008 C  
DOCKED: ATOM     18  C   UNL     1      17.534  24.857  17.081 -0.30 -0.00    +0.027 C  
DOCKED: ATOM     19  C   UNL     1      16.736  23.595  17.179 -0.32 +0.00    -0.027 C  
DOCKED: ATOM     20  C   UNL     1      15.441  23.519  17.509 -0.30 +0.00    -0.004 C  
DOCKED: ATOM     21  C   UNL     1      14.625  24.596  18.009 -0.18 -0.00    -0.001 C  
DOCKED: ATOM     22  C   UNL     1      14.724  25.924  17.811 -0.16 -0.01    -0.069 C  
DOCKED: ENDBRANCH  15  22
DOCKED: ENDBRANCH  14  15
DOCKED: ENDBRANCH   1  14
DOCKED: TORSDOF 4
DOCKED: TER
DOCKED: ENDMDL
________________________________________________________________________________


    FINAL DOCKED STATE:
    ________________________


Run:   47 / 50
Time taken for this run:   0.000s

DOCKED: MODEL        47
DOCKED: USER    Run = 47
DOCKED: USER
DOCKED: USER    Estimated Free Energy of Binding    =  -5.07 kcal/mol  [=(1)+(2)+(3)-(4)]
DOCKED: USER
DOCKED: USER    (1) Final Intermolecular Energy     =  -6.26 kcal/mol
DOCKED: USER        vdW + Hbond + desolv Energy     =  -6.28 kcal/mol
DOCKED: USER        Electrostatic Energy            =  +0.02 kcal/mol
DOCKED: USER        Moving Ligand-Fixed Receptor    =  -6.26 kcal/mol
DOCKED: USER        Moving Ligand-Moving Receptor   =  +0.00 kcal/mol
DOCKED: USER    (2) Final Total Internal Energy     =  -0.96 kcal/mol
DOCKED: USER    (3) Torsional Free Energy           =  +1.19 kcal/mol
DOCKED: USER    (4) Unbound System's Energy         =  -0.96 kcal/mol
DOCKED: USER
DOCKED: USER
DOCKED: REMARK  Name = 
DOCKED: REMARK  4 active torsions:
DOCKED: REMARK  status: ('A' for Active; 'I' for Inactive)
DOCKED: REMARK    1  A    between atoms: C_7  and  C_8
DOCKED: REMARK    2  A    between atoms: C_8  and  C_9
DOCKED: REMARK    3  A    between atoms: C_9  and  C_10
DOCKED: REMARK    4  A    between atoms: C_11  and  C_12
DOCKED: REMARK                            x       y       z     vdW  Elec       q    Type
DOCKED: REMARK                         _______ _______ _______ _____ _____    ______ ____
DOCKED: USER                              x       y       z     vdW  Elec       q    Type
DOCKED: USER                           _______ _______ _______ _____ _____    ______ ____
DOCKED: ROOT
DOCKED: ATOM      1  C   UNL     1      11.956  25.582  17.753 -0.21 +0.00    -0.026 C  
DOCKED: ATOM      2  C   UNL     1      11.072  25.386  16.768 -0.25 -0.00    -0.004 C  
DOCKED: ENDROOT
DOCKED: BRANCH   2   3
DOCKED: ATOM      3  C   UNL     1      10.267  24.190  16.647 -0.32 -0.00    +0.004 C  
DOCKED: ATOM      4  C   UNL     1      10.741  22.962  16.328 -0.32 +0.00    -0.036 C  
DOCKED: ATOM      5  C   UNL     1      12.224  22.758  16.054 -0.25 +0.01    +0.063 C  
DOCKED: ATOM      6  C   UNL     1      12.652  21.371  15.699 -0.48 +0.00    -0.022 C  
DOCKED: ATOM      7  C   UNL     1      11.818  20.334  15.614 -0.41 -0.00    +0.004 C  
DOCKED: ATOM      8  C   UNL     1      10.389  20.507  15.876 -0.32 +0.00    -0.018 A  
DOCKED: ATOM      9  C   UNL     1       9.561  19.377  15.774 -0.38 -0.00    +0.008 A  
DOCKED: ATOM     10  C   UNL     1       8.193  19.472  16.017 -0.31 -0.00    +0.001 A  
DOCKED: ATOM     11  C   UNL     1       7.644  20.696  16.363 -0.26 -0.00    +0.001 A  
DOCKED: ATOM     12  C   UNL     1       8.458  21.828  16.465 -0.26 -0.00    +0.009 A  
DOCKED: ATOM     13  C   UNL     1       9.846  21.765  16.223 -0.27 +0.00    -0.014 A  
DOCKED: ENDBRANCH   2   3
DOCKED: BRANCH   1  14
DOCKED: ATOM     14  C   UNL     1      12.745  26.859  17.856 -0.19 +0.00    +0.031 C  
DOCKED: BRANCH  14  15
DOCKED: ATOM     15  C   UNL     1      14.099  26.642  18.535 -0.12 +0.00    +0.035 C  
DOCKED: BRANCH  15  22
DOCKED: ATOM     16  C   UNL     1      15.985  26.575  16.809 -0.24 +0.00    +0.031 C  
DOCKED: ATOM     17  C   UNL     1      17.137  25.876  16.082 -0.37 +0.00    +0.008 C  
DOCKED: ATOM     18  C   UNL     1      17.947  24.939  16.968 -0.30 -0.00    +0.027 C  
DOCKED: ATOM     19  C   UNL     1      17.260  23.618  17.122 -0.33 +0.00    -0.027 C  
DOCKED: ATOM     20  C   UNL     1      15.982  23.444  17.481 -0.33 +0.00    -0.004 C  
DOCKED: ATOM     21  C   UNL     1      15.088  24.462  17.967 -0.20 +0.00    -0.001 C  
DOCKED: ATOM     22  C   UNL     1      15.070  25.787  17.728 -0.16 -0.01    -0.069 C  
DOCKED: ENDBRANCH  15  22
DOCKED: ENDBRANCH  14  15
DOCKED: ENDBRANCH   1  14
DOCKED: TORSDOF 4
DOCKED: TER
DOCKED: ENDMDL
________________________________________________________________________________


    FINAL DOCKED STATE:
    ________________________


Run:   48 / 50
Time taken for this run:   0.000s

DOCKED: MODEL        48
DOCKED: USER    Run = 48
DOCKED: USER
DOCKED: USER    Estimated Free Energy of Binding    =  -5.13 kcal/mol  [=(1)+(2)+(3)-(4)]
DOCKED: USER
DOCKED: USER    (1) Final Intermolecular Energy     =  -6.32 kcal/mol
DOCKED: USER        vdW + Hbond + desolv Energy     =  -6.32 kcal/mol
DOCKED: USER        Electrostatic Energy            =  +0.00 kcal/mol
DOCKED: USER        Moving Ligand-Fixed Receptor    =  -6.32 kcal/mol
DOCKED: USER        Moving Ligand-Moving Receptor   =  +0.00 kcal/mol
DOCKED: USER    (2) Final Total Internal Energy     =  -0.94 kcal/mol
DOCKED: USER    (3) Torsional Free Energy           =  +1.19 kcal/mol
DOCKED: USER    (4) Unbound System's Energy         =  -0.94 kcal/mol
DOCKED: USER
DOCKED: USER
DOCKED: REMARK  Name = 
DOCKED: REMARK  4 active torsions:
DOCKED: REMARK  status: ('A' for Active; 'I' for Inactive)
DOCKED: REMARK    1  A    between atoms: C_7  and  C_8
DOCKED: REMARK    2  A    between atoms: C_8  and  C_9
DOCKED: REMARK    3  A    between atoms: C_9  and  C_10
DOCKED: REMARK    4  A    between atoms: C_11  and  C_12
DOCKED: REMARK                            x       y       z     vdW  Elec       q    Type
DOCKED: REMARK                         _______ _______ _______ _____ _____    ______ ____
DOCKED: USER                              x       y       z     vdW  Elec       q    Type
DOCKED: USER                           _______ _______ _______ _____ _____    ______ ____
DOCKED: ROOT
DOCKED: ATOM      1  C   UNL     1      15.081  22.423  18.385 -0.27 +0.00    -0.026 C  
DOCKED: ATOM      2  C   UNL     1      14.714  22.118  17.134 -0.38 +0.00    -0.004 C  
DOCKED: ENDROOT
DOCKED: BRANCH   2   3
DOCKED: ATOM      3  C   UNL     1      13.442  21.516  16.802 -0.35 -0.00    +0.004 C  
DOCKED: ATOM      4  C   UNL     1      12.283  22.194  16.624 -0.33 +0.00    -0.036 C  
DOCKED: ATOM      5  C   UNL     1      12.247  23.707  16.778 -0.18 +0.01    +0.063 C  
DOCKED: ATOM      6  C   UNL     1      10.922  24.367  16.573 -0.31 +0.00    -0.022 C  
DOCKED: ATOM      7  C   UNL     1       9.802  23.710  16.269 -0.35 -0.00    +0.004 C  
DOCKED: ATOM      8  C   UNL     1       9.815  22.255  16.113 -0.29 +0.00    -0.018 A  
DOCKED: ATOM      9  C   UNL     1       8.605  21.619  15.789 -0.33 -0.00    +0.008 A  
DOCKED: ATOM     10  C   UNL     1       8.549  20.238  15.620 -0.29 -0.00    +0.001 A  
DOCKED: ATOM     11  C   UNL     1       9.702  19.484  15.774 -0.41 -0.00    +0.001 A  
DOCKED: ATOM     12  C   UNL     1      10.911  20.106  16.098 -0.37 -0.00    +0.009 A  
DOCKED: ATOM     13  C   UNL     1      10.999  21.502  16.278 -0.30 +0.00    -0.014 A  
DOCKED: ENDBRANCH   2   3
DOCKED: BRANCH   1  14
DOCKED: ATOM     14  C   UNL     1      16.402  23.081  18.677 -0.20 -0.00    +0.031 C  
DOCKED: BRANCH  14  15
DOCKED: ATOM     15  C   UNL     1      17.036  23.677  17.418 -0.32 -0.00    +0.035 C  
DOCKED: BRANCH  15  22
DOCKED: ATOM     16  C   UNL     1      15.274  25.484  17.836 -0.18 +0.00    +0.031 C  
DOCKED: ATOM     17  C   UNL     1      14.728  26.907  17.695 -0.18 +0.00    +0.008 C  
DOCKED: ATOM     18  C   UNL     1      15.804  27.984  17.714 -0.14 +0.00    +0.027 C  
DOCKED: ATOM     19  C   UNL     1      16.455  28.117  16.374 -0.23 -0.00    -0.027 C  
DOCKED: ATOM     20  C   UNL     1      16.965  27.108  15.655 -0.29 -0.00    -0.004 C  
DOCKED: ATOM     21  C   UNL     1      17.154  25.753  16.104 -0.37 -0.00    -0.001 C  
DOCKED: ATOM     22  C   UNL     1      16.483  25.044  17.031 -0.25 -0.00    -0.069 C  
DOCKED: ENDBRANCH  15  22
DOCKED: ENDBRANCH  14  15
DOCKED: ENDBRANCH   1  14
DOCKED: TORSDOF 4
DOCKED: TER
DOCKED: ENDMDL
________________________________________________________________________________


    FINAL DOCKED STATE:
    ________________________


Run:   49 / 50
Time taken for this run:   0.000s

DOCKED: MODEL        49
DOCKED: USER    Run = 49
DOCKED: USER
DOCKED: USER    Estimated Free Energy of Binding    =  -5.47 kcal/mol  [=(1)+(2)+(3)-(4)]
DOCKED: USER
DOCKED: USER    (1) Final Intermolecular Energy     =  -6.66 kcal/mol
DOCKED: USER        vdW + Hbond + desolv Energy     =  -6.67 kcal/mol
DOCKED: USER        Electrostatic Energy            =  +0.01 kcal/mol
DOCKED: USER        Moving Ligand-Fixed Receptor    =  -6.66 kcal/mol
DOCKED: USER        Moving Ligand-Moving Receptor   =  +0.00 kcal/mol
DOCKED: USER    (2) Final Total Internal Energy     =  -0.51 kcal/mol
DOCKED: USER    (3) Torsional Free Energy           =  +1.19 kcal/mol
DOCKED: USER    (4) Unbound System's Energy         =  -0.51 kcal/mol
DOCKED: USER
DOCKED: USER
DOCKED: REMARK  Name = 
DOCKED: REMARK  4 active torsions:
DOCKED: REMARK  status: ('A' for Active; 'I' for Inactive)
DOCKED: REMARK    1  A    between atoms: C_7  and  C_8
DOCKED: REMARK    2  A    between atoms: C_8  and  C_9
DOCKED: REMARK    3  A    between atoms: C_9  and  C_10
DOCKED: REMARK    4  A    between atoms: C_11  and  C_12
DOCKED: REMARK                            x       y       z     vdW  Elec       q    Type
DOCKED: REMARK                         _______ _______ _______ _____ _____    ______ ____
DOCKED: USER                              x       y       z     vdW  Elec       q    Type
DOCKED: USER                           _______ _______ _______ _____ _____    ______ ____
DOCKED: ROOT
DOCKED: ATOM      1  C   UNL     1      14.654  22.117  17.126 -0.37 +0.00    -0.026 C  
DOCKED: ATOM      2  C   UNL     1      15.404  23.000  17.796 -0.32 +0.00    -0.004 C  
DOCKED: ENDROOT
DOCKED: BRANCH   2   3
DOCKED: ATOM      3  C   UNL     1      16.792  23.262  17.486 -0.30 -0.00    +0.004 C  
DOCKED: ATOM      4  C   UNL     1      17.278  24.439  17.027 -0.32 +0.00    -0.036 C  
DOCKED: ATOM      5  C   UNL     1      16.342  25.615  16.787 -0.21 +0.01    +0.063 C  
DOCKED: ATOM      6  C   UNL     1      16.967  26.870  16.269 -0.31 -0.00    -0.022 C  
DOCKED: ATOM      7  C   UNL     1      18.269  27.003  16.014 -0.25 +0.00    +0.004 C  
DOCKED: ATOM      8  C   UNL     1      19.187  25.886  16.240 -0.22 +0.00    -0.018 A  
DOCKED: ATOM      9  C   UNL     1      20.548  26.087  15.956 -0.18 -0.00    +0.008 A  
DOCKED: ATOM     10  C   UNL     1      21.475  25.067  16.155 -0.17 -0.00    +0.001 A  
DOCKED: ATOM     11  C   UNL     1      21.048  23.840  16.638 -0.22 -0.00    +0.001 A  
DOCKED: ATOM     12  C   UNL     1      19.696  23.629  16.921 -0.20 -0.00    +0.009 A  
DOCKED: ATOM     13  C   UNL     1      18.733  24.640  16.728 -0.23 +0.00    -0.014 A  
DOCKED: ENDBRANCH   2   3
DOCKED: BRANCH   1  14
DOCKED: ATOM     14  C   UNL     1      13.203  21.904  17.463 -0.31 -0.00    +0.031 C  
DOCKED: BRANCH  14  15
DOCKED: ATOM     15  C   UNL     1      12.275  22.580  16.452 -0.32 +0.00    +0.035 C  
DOCKED: BRANCH  15  22
DOCKED: ATOM     16  C   UNL     1      11.524  20.273  15.639 -0.44 -0.00    +0.031 C  
DOCKED: ATOM     17  C   UNL     1      10.453  19.223  15.334 -0.50 -0.00    +0.008 C  
DOCKED: ATOM     18  C   UNL     1       9.285  19.233  16.310 -0.37 -0.00    +0.027 C  
DOCKED: ATOM     19  C   UNL     1       8.305  20.311  15.964 -0.34 +0.00    -0.027 C  
DOCKED: ATOM     20  C   UNL     1       8.610  21.597  15.749 -0.38 +0.00    -0.004 C  
DOCKED: ATOM     21  C   UNL     1       9.885  22.223  15.991 -0.35 +0.00    -0.001 C  
DOCKED: ATOM     22  C   UNL     1      11.125  21.698  15.977 -0.34 +0.00    -0.069 C  
DOCKED: ENDBRANCH  15  22
DOCKED: ENDBRANCH  14  15
DOCKED: ENDBRANCH   1  14
DOCKED: TORSDOF 4
DOCKED: TER
DOCKED: ENDMDL
________________________________________________________________________________


    FINAL DOCKED STATE:
    ________________________


Run:   50 / 50
Time taken for this run:   0.000s

DOCKED: MODEL        50
DOCKED: USER    Run = 50
DOCKED: USER
DOCKED: USER    Estimated Free Energy of Binding    =  -4.78 kcal/mol  [=(1)+(2)+(3)-(4)]
DOCKED: USER
DOCKED: USER    (1) Final Intermolecular Energy     =  -5.97 kcal/mol
DOCKED: USER        vdW + Hbond + desolv Energy     =  -5.97 kcal/mol
DOCKED: USER        Electrostatic Energy            =  -0.00 kcal/mol
DOCKED: USER        Moving Ligand-Fixed Receptor    =  -5.97 kcal/mol
DOCKED: USER        Moving Ligand-Moving Receptor   =  +0.00 kcal/mol
DOCKED: USER    (2) Final Total Internal Energy     =  -1.07 kcal/mol
DOCKED: USER    (3) Torsional Free Energy           =  +1.19 kcal/mol
DOCKED: USER    (4) Unbound System's Energy         =  -1.07 kcal/mol
DOCKED: USER
DOCKED: USER
DOCKED: REMARK  Name = 
DOCKED: REMARK  4 active torsions:
DOCKED: REMARK  status: ('A' for Active; 'I' for Inactive)
DOCKED: REMARK    1  A    between atoms: C_7  and  C_8
DOCKED: REMARK    2  A    between atoms: C_8  and  C_9
DOCKED: REMARK    3  A    between atoms: C_9  and  C_10
DOCKED: REMARK    4  A    between atoms: C_11  and  C_12
DOCKED: REMARK                            x       y       z     vdW  Elec       q    Type
DOCKED: REMARK                         _______ _______ _______ _____ _____    ______ ____
DOCKED: USER                              x       y       z     vdW  Elec       q    Type
DOCKED: USER                           _______ _______ _______ _____ _____    ______ ____
DOCKED: ROOT
DOCKED: ATOM      1  C   UNL     1      11.181  19.711  15.442 -0.46 +0.00    -0.026 C  
DOCKED: ATOM      2  C   UNL     1      10.059  20.174  16.007 -0.43 +0.00    -0.004 C  
DOCKED: ENDROOT
DOCKED: BRANCH   2   3
DOCKED: ATOM      3  C   UNL     1       8.920  19.338  16.316 -0.37 -0.00    +0.004 C  
DOCKED: ATOM      4  C   UNL     1       7.631  19.753  16.334 -0.26 +0.00    -0.036 C  
DOCKED: ATOM      5  C   UNL     1       7.288  21.202  16.022 -0.29 -0.02    +0.063 C  
DOCKED: ATOM      6  C   UNL     1       5.840  21.571  16.076 -0.26 +0.01    -0.022 C  
DOCKED: ATOM      7  C   UNL     1       4.864  20.713  16.376 -0.19 -0.00    +0.004 C  
DOCKED: ATOM      8  C   UNL     1       5.173  19.314  16.676 -0.15 +0.00    -0.018 A  
DOCKED: ATOM      9  C   UNL     1       4.103  18.457  16.982 -0.14 -0.00    +0.008 A  
DOCKED: ATOM     10  C   UNL     1       4.326  17.114  17.271 -0.20 -0.00    +0.001 A  
DOCKED: ATOM     11  C   UNL     1       5.620  16.618  17.257 -0.26 -0.00    +0.001 A  
DOCKED: ATOM     12  C   UNL     1       6.693  17.463  16.956 -0.21 -0.00    +0.009 A  
DOCKED: ATOM     13  C   UNL     1       6.499  18.827  16.661 -0.19 +0.00    -0.014 A  
DOCKED: ENDBRANCH   2   3
DOCKED: BRANCH   1  14
DOCKED: ATOM     14  C   UNL     1      12.354  20.614  15.172 -0.42 -0.00    +0.031 C  
DOCKED: BRANCH  14  15
DOCKED: ATOM     15  C   UNL     1      12.733  21.444  16.400 -0.40 -0.00    +0.035 C  
DOCKED: BRANCH  15  22
DOCKED: ATOM     16  C   UNL     1      11.087  23.103  15.362 -0.35 +0.00    +0.031 C  
DOCKED: ATOM     17  C   UNL     1      10.053  24.229  15.453 -0.36 -0.00    +0.008 C  
DOCKED: ATOM     18  C   UNL     1       9.158  24.145  16.682 -0.25 -0.01    +0.027 C  
DOCKED: ATOM     19  C   UNL     1       9.848  24.700  17.889 -0.19 +0.01    -0.027 C  
DOCKED: ATOM     20  C   UNL     1      11.073  24.357  18.309 -0.14 +0.00    -0.004 C  
DOCKED: ATOM     21  C   UNL     1      11.875  23.273  17.803 -0.18 +0.00    -0.001 C  
DOCKED: ATOM     22  C   UNL     1      11.893  22.704  16.583 -0.29 +0.00    -0.069 C  
DOCKED: ENDBRANCH  15  22
DOCKED: ENDBRANCH  14  15
DOCKED: ENDBRANCH   1  14
DOCKED: TORSDOF 4
DOCKED: TER
DOCKED: ENDMDL
________________________________________________________________________________


    CLUSTERING HISTOGRAM
    ____________________


________________________________________________________________________________
     |           |     |           |     |
Clus | Lowest    | Run | Mean      | Num | Histogram
-ter | Binding   |     | Binding   | in  |
Rank | Energy    |     | Energy    | Clus|    5    10   15   20   25   30   35
_____|___________|_____|___________|_____|____:____|____:____|____:____|____:___
   1 |     -5.48 |  41 |     -5.44 |   6 |######
   2 |     -5.35 |  29 |     -5.10 |  35 |###################################
   3 |     -4.88 |  44 |     -4.77 |   4 |####
   4 |     -4.69 |  31 |     -4.69 |   2 |##
   5 |     -4.64 |   7 |     -4.62 |   2 |##
   6 |     -4.39 |  34 |     -4.39 |   1 |#
_____|___________|_____|___________|_____|______________________________________


    RMSD TABLE
    __________


_______________________________________________________________________
     |      |      |           |         |                 |
Rank | Sub- | Run  | Binding   | Cluster | Reference       | Grep
     | Rank |      | Energy    | RMSD    | RMSD            | Pattern
_____|______|______|___________|_________|_________________|___________
   1      1     41       -5.48      0.00     29.53           RANKING
   1      2     49       -5.47      0.05     29.51           RANKING
   1      3     36       -5.46      0.06     29.53           RANKING
   1      4     32       -5.46      0.07     29.51           RANKING
   1      5     12       -5.43      0.21     29.58           RANKING
   1      6      9       -5.38      0.21     29.57           RANKING
   2      1     29       -5.35      0.00     28.28           RANKING
   2      2     24       -5.35      0.13     28.31           RANKING
   2      3     14       -5.33      0.42     28.46           RANKING
   2      4     45       -5.31      0.35     28.42           RANKING
   2      5      5       -5.29      1.45     29.26           RANKING
   2      6     25       -5.27      1.61     29.36           RANKING
   2      7     35       -5.21      1.53     29.41           RANKING
   2      8      6       -5.18      1.69     29.48           RANKING
   2      9     42       -5.16      1.60     29.49           RANKING
   2     10     20       -5.16      1.50     29.40           RANKING
   2     11     27       -5.16      1.46     29.39           RANKING
   2     12     28       -5.16      1.59     29.49           RANKING
   2     13     16       -5.16      1.46     29.37           RANKING
   2     14     38       -5.16      1.46     29.35           RANKING
   2     15     10       -5.15      1.45     29.46           RANKING
   2     16     19       -5.15      1.48     29.36           RANKING
   2     17     39       -5.14      1.44     29.44           RANKING
   2     18      3       -5.14      1.37     29.40           RANKING
   2     19      8       -5.14      1.45     29.47           RANKING
   2     20     13       -5.13      1.47     29.42           RANKING
   2     21      2       -5.13      1.36     29.42           RANKING
   2     22     48       -5.13      1.45     29.47           RANKING
   2     23     33       -5.10      1.46     29.46           RANKING
   2     24     47       -5.07      1.51     29.12           RANKING
   2     25     23       -5.03      1.58     28.99           RANKING
   2     26     30       -5.03      1.54     29.12           RANKING
   2     27     40       -4.97      1.66     28.84           RANKING
   2     28     17       -4.97      1.63     28.86           RANKING
   2     29     18       -4.97      1.64     28.85           RANKING
   2     30     43       -4.96      1.59     29.10           RANKING
   2     31     46       -4.96      1.61     29.10           RANKING
   2     32      4       -4.96      1.61     29.10           RANKING
   2     33     15       -4.95      1.60     29.09           RANKING
   2     34     22       -4.94      1.63     29.08           RANKING
   2     35     26       -4.34      1.67     28.42           RANKING
   3      1     44       -4.88      0.00     26.17           RANKING
   3      2     11       -4.84      0.30     26.13           RANKING
   3      3     50       -4.78      0.56     26.09           RANKING
   3      4     37       -4.59      0.64     26.27           RANKING
   4      1     31       -4.69      0.00     24.80           RANKING
   4      2     21       -4.68      0.03     24.82           RANKING
   5      1      7       -4.64      0.00     25.41           RANKING
   5      2      1       -4.60      1.17     24.90           RANKING
   6      1     34       -4.39      0.00     28.02           RANKING

Run time 0.797 sec
Idle time 0.340 sec
