AutoDock-GPU version: v1.6-14-g28a61394827e4a7cc1a0c277bf23f1fdc917bb4f

**********************************************************
**    AutoDock-GPU AUTODOCKTOOLS-COMPATIBLE DLG FILE    **
**********************************************************


    DOCKING PARAMETERS
    ________________________


Ligand file:                               ligands_nrun50/0/ligand3.pdbqt
Grid fld file:                             2g76/2g76.maps.fld

Random seed:                               0
Number of runs:                            50
Number of energy evaluations:              480000
Number of generations:                     42000
Size of population:                        150
Rate of crossover:                         80.000000%
Tournament selection probability limit:    60.000000%
Rate of mutation:                          2.000000%
Maximal allowed delta movement:            +/- 6.000000A
Maximal allowed delta angle:               +/- 90.000000

Rate of local search:                      100.000000%
Maximal number of local search iterations: 300
Rho lower bound:                           0.010000
Spread of local search delta movement:     2.000000A
Spread of local search delta angle:        74.999999
Limit of consecutive successes/failures:   4

Handle symmetry during clustering:         YES
RMSD tolerance:                            2.000000A

Program call in command line was:          ../bin/autodock_gpu_128wi -M 2g76/2g76.maps.fld -L ligands_nrun50/0/ligand3.pdbqt -N outs_nrun50/ligand3 -nrun 50 -s 0 


    GRID PARAMETERS
    ________________________


Receptor name:                             2g76
Number of grid points (x, y, z):           61, 61, 61
Grid center (x, y, z):                     14.547000, 25.866000, 14.134000A
Grid size (x, y, z):                       22.500000, 22.500000, 22.500000A
Grid spacing:                              0.375000A


    LIGAND PARAMETERS
    ________________________


Ligand name:                               ligands_nrun50/0/ligand3
Number of atoms:                           32
Number of rotatable bonds:                 5
Number of atom types:                      8


    DUMMY DATA (only for ADT-compatibility)
    ________________________


DPF> outlev 1
DPF> ga_run 50
DPF> fld 2g76/2g76.maps.fld
DPF> move ligands_nrun50/0/ligand3.pdbqt


    COUNTER STATES
    ________________________


Number of energy evaluations performed:    491713
Number of generations used:                36


    INPUT LIGAND PDBQT FILE:
    ________________________


INPUT-LIGAND-PDBQT: REMARK  Name = 
INPUT-LIGAND-PDBQT: REMARK  6 active torsions:
INPUT-LIGAND-PDBQT: REMARK  status: ('A' for Active; 'I' for Inactive)
INPUT-LIGAND-PDBQT: REMARK    1  A    between atoms: C_1  and  C_2
INPUT-LIGAND-PDBQT: REMARK    2  A    between atoms: C_2  and  C_3
INPUT-LIGAND-PDBQT: REMARK    3  A    between atoms: C_2  and  N_11
INPUT-LIGAND-PDBQT: REMARK    4  A    between atoms: C_14  and  N_15
INPUT-LIGAND-PDBQT: REMARK    5  A    between atoms: N_15  and  S_16
INPUT-LIGAND-PDBQT: REMARK    6  A    between atoms: S_16  and  C_19
INPUT-LIGAND-PDBQT: REMARK                            x       y       z     vdW  Elec       q    Type
INPUT-LIGAND-PDBQT: REMARK                         _______ _______ _______ _____ _____    ______ ____
INPUT-LIGAND-PDBQT: ROOT
INPUT-LIGAND-PDBQT: ATOM      1  N   UNL     1       2.971   0.907  -0.912  0.00  0.00    -0.289 N 
INPUT-LIGAND-PDBQT: ATOM      2  C   UNL     1       2.866   2.349  -0.892  0.00  0.00    +0.110 C 
INPUT-LIGAND-PDBQT: ATOM      3  C   UNL     1       2.908   2.747  -2.373  0.00  0.00    +0.049 C 
INPUT-LIGAND-PDBQT: ATOM      4  C   UNL     1       3.706   1.610  -3.007  0.00  0.00    +0.164 C 
INPUT-LIGAND-PDBQT: ATOM      5  C   UNL     1       3.147   0.463  -2.208  0.00  0.00    +0.235 C 
INPUT-LIGAND-PDBQT: ATOM      6  O   UNL     1       2.892  -0.664  -2.573  0.00  0.00    -0.274 OA
INPUT-LIGAND-PDBQT: ENDROOT
INPUT-LIGAND-PDBQT: BRANCH   1   8
INPUT-LIGAND-PDBQT: ATOM      7  C   UNL     1       1.001  -0.406  -0.221  0.00  0.00    +0.038 C 
INPUT-LIGAND-PDBQT: ATOM      8  C   UNL     1       2.436   0.019   0.125  0.00  0.00    +0.159 C 
INPUT-LIGAND-PDBQT: BRANCH   8   9
INPUT-LIGAND-PDBQT: ATOM      9  C   UNL     1       3.364  -1.232   0.339  0.00  0.00    +0.236 C 
INPUT-LIGAND-PDBQT: ATOM     10  O   UNL     1       2.878  -2.365   0.409  0.00  0.00    -0.274 OA
INPUT-LIGAND-PDBQT: ATOM     11  N   UNL     1       4.730  -1.050   0.556  0.00  0.00    -0.296 N 
INPUT-LIGAND-PDBQT: ATOM     12  C   UNL     1       5.460   0.214   0.655  0.00  0.00    +0.136 C 
INPUT-LIGAND-PDBQT: ATOM     13  C   UNL     1       6.351   0.394  -0.579  0.00  0.00    +0.179 C 
INPUT-LIGAND-PDBQT: ATOM     14  O   UNL     1       7.251  -0.717  -0.725  0.00  0.00    -0.377 OA
INPUT-LIGAND-PDBQT: ATOM     15  C   UNL     1       6.513  -1.949  -0.864  0.00  0.00    +0.179 C 
INPUT-LIGAND-PDBQT: ATOM     16  C   UNL     1       5.636  -2.192   0.375  0.00  0.00    +0.136 C 
INPUT-LIGAND-PDBQT: ENDBRANCH   8   9
INPUT-LIGAND-PDBQT: ENDBRANCH   1   8
INPUT-LIGAND-PDBQT: BRANCH   4  17
INPUT-LIGAND-PDBQT: ATOM     17  N   UNL     1       3.613   1.530  -4.468  0.00  0.00    -0.178 NA
INPUT-LIGAND-PDBQT: ATOM     18  H   UNL     1       3.794   2.390  -4.988  0.00  0.00    +0.149 HD
INPUT-LIGAND-PDBQT: BRANCH  17  19
INPUT-LIGAND-PDBQT: ATOM     19  S   UNL     1       4.528   0.278  -5.190  0.00  0.00    +0.059 S 
INPUT-LIGAND-PDBQT: ATOM     20  O   UNL     1       4.750   0.711  -6.556  0.00  0.00    -0.153 OA
INPUT-LIGAND-PDBQT: ATOM     21  O   UNL     1       5.648  -0.001  -4.304  0.00  0.00    -0.153 OA
INPUT-LIGAND-PDBQT: BRANCH  19  22
INPUT-LIGAND-PDBQT: ATOM     22  C   UNL     1       3.450  -1.121  -5.251  0.00  0.00    +0.106 A 
INPUT-LIGAND-PDBQT: ATOM     23  C   UNL     1       2.258  -1.029  -5.968  0.00  0.00    +0.029 A 
INPUT-LIGAND-PDBQT: ATOM     24  C   UNL     1       1.329  -2.069  -5.884  0.00  0.00    +0.010 A 
INPUT-LIGAND-PDBQT: ATOM     25  C   UNL     1       1.570  -3.189  -5.066  0.00  0.00    -0.016 A 
INPUT-LIGAND-PDBQT: ATOM     26  C   UNL     1       0.615  -4.207  -4.918  0.00  0.00    +0.028 A 
INPUT-LIGAND-PDBQT: ATOM     27  C   UNL     1       0.857  -5.285  -4.066  0.00  0.00    +0.042 A 
INPUT-LIGAND-PDBQT: ATOM     28 CL   UNL     1      -0.325  -6.528  -3.907  0.00  0.00    -0.084 Cl
INPUT-LIGAND-PDBQT: ATOM     29  C   UNL     1       2.041  -5.364  -3.341  0.00  0.00    +0.020 A 
INPUT-LIGAND-PDBQT: ATOM     30  C   UNL     1       3.004  -4.365  -3.485  0.00  0.00    +0.010 A 
INPUT-LIGAND-PDBQT: ATOM     31  C   UNL     1       2.791  -3.284  -4.357  0.00  0.00    -0.016 A 
INPUT-LIGAND-PDBQT: ATOM     32  C   UNL     1       3.746  -2.267  -4.498  0.00  0.00    +0.037 A 
INPUT-LIGAND-PDBQT: ENDBRANCH  19  22
INPUT-LIGAND-PDBQT: ENDBRANCH  17  19
INPUT-LIGAND-PDBQT: ENDBRANCH   4  17
INPUT-LIGAND-PDBQT: TORSDOF 5


    FINAL DOCKED STATE:
    ________________________


Run:   1 / 50
Time taken for this run:   0.000s

DOCKED: MODEL        1
DOCKED: USER    Run = 1
DOCKED: USER
DOCKED: USER    Estimated Free Energy of Binding    =  -5.06 kcal/mol  [=(1)+(2)+(3)-(4)]
DOCKED: USER
DOCKED: USER    (1) Final Intermolecular Energy     =  -6.55 kcal/mol
DOCKED: USER        vdW + Hbond + desolv Energy     =  -6.44 kcal/mol
DOCKED: USER        Electrostatic Energy            =  -0.11 kcal/mol
DOCKED: USER        Moving Ligand-Fixed Receptor    =  -6.55 kcal/mol
DOCKED: USER        Moving Ligand-Moving Receptor   =  +0.00 kcal/mol
DOCKED: USER    (2) Final Total Internal Energy     =  -1.57 kcal/mol
DOCKED: USER    (3) Torsional Free Energy           =  +1.49 kcal/mol
DOCKED: USER    (4) Unbound System's Energy         =  -1.57 kcal/mol
DOCKED: USER
DOCKED: USER
DOCKED: REMARK  Name = 
DOCKED: REMARK  6 active torsions:
DOCKED: REMARK  status: ('A' for Active; 'I' for Inactive)
DOCKED: REMARK    1  A    between atoms: C_1  and  C_2
DOCKED: REMARK    2  A    between atoms: C_2  and  C_3
DOCKED: REMARK    3  A    between atoms: C_2  and  N_11
DOCKED: REMARK    4  A    between atoms: C_14  and  N_15
DOCKED: REMARK    5  A    between atoms: N_15  and  S_16
DOCKED: REMARK    6  A    between atoms: S_16  and  C_19
DOCKED: REMARK                            x       y       z     vdW  Elec       q    Type
DOCKED: REMARK                         _______ _______ _______ _____ _____    ______ ____
DOCKED: USER                              x       y       z     vdW  Elec       q    Type
DOCKED: USER                           _______ _______ _______ _____ _____    ______ ____
DOCKED: ROOT
DOCKED: ATOM      1  N   UNL     1      21.172  24.980  16.549 -0.07 +0.06    -0.289 N  
DOCKED: ATOM      2  C   UNL     1      22.137  24.492  17.510 -0.06 -0.02    +0.110 C  
DOCKED: ATOM      3  C   UNL     1      22.978  23.485  16.715 -0.11 -0.01    +0.049 C  
DOCKED: ATOM      4  C   UNL     1      22.006  23.004  15.640 -0.27 -0.04    +0.164 C  
DOCKED: ATOM      5  C   UNL     1      21.320  24.313  15.349 -0.20 -0.07    +0.235 C  
DOCKED: ATOM      6  O   UNL     1      20.934  24.748  14.286 -0.08 +0.07    -0.274 OA 
DOCKED: ENDROOT
DOCKED: BRANCH   1   8
DOCKED: ATOM      7  C   UNL     1      21.165  27.246  15.576 -0.13 -0.01    +0.038 C  
DOCKED: ATOM      8  C   UNL     1      20.533  26.298  16.607 -0.11 -0.02    +0.159 C  
DOCKED: BRANCH   8   9
DOCKED: ATOM      9  C   UNL     1      18.979  26.189  16.402 -0.16 -0.02    +0.236 C  
DOCKED: ATOM     10  O   UNL     1      18.446  26.670  15.398 -0.44 -0.06    -0.274 OA 
DOCKED: ATOM     11  N   UNL     1      18.186  25.638  17.410 -0.08 +0.03    -0.296 N  
DOCKED: ATOM     12  C   UNL     1      18.615  25.153  18.722 -0.06 -0.02    +0.136 C  
DOCKED: ATOM     13  C   UNL     1      18.499  23.626  18.771 -0.09 -0.02    +0.179 C  
DOCKED: ATOM     14  O   UNL     1      17.157  23.206  18.473 -0.10 +0.05    -0.377 OA 
DOCKED: ATOM     15  C   UNL     1      16.767  23.656  17.159 -0.25 -0.02    +0.179 C  
DOCKED: ATOM     16  C   UNL     1      16.827  25.190  17.078 -0.24 -0.00    +0.136 C  
DOCKED: ENDBRANCH   8   9
DOCKED: ENDBRANCH   1   8
DOCKED: BRANCH   4  17
DOCKED: ATOM     17  N   UNL     1      22.628  22.298  14.516 -0.15 +0.05    -0.178 NA 
DOCKED: ATOM     18  H   UNL     1      22.254  22.494  13.587 -0.32 -0.07    +0.149 HD 
DOCKED: BRANCH  17  19
DOCKED: ATOM     19  S   UNL     1      24.332  22.417  14.432 -0.21 -0.01    +0.059 S  
DOCKED: ATOM     20  O   UNL     1      24.607  23.837  14.326 -0.10 +0.04    -0.153 OA 
DOCKED: ATOM     21  O   UNL     1      24.872  21.633  15.532 -0.06 +0.03    -0.153 OA 
DOCKED: BRANCH  19  22
DOCKED: ATOM     22  C   UNL     1      24.783  21.678  12.892 -0.15 -0.03    +0.106 A  
DOCKED: ATOM     23  C   UNL     1      25.502  22.429  11.963 -0.19 -0.01    +0.029 A  
DOCKED: ATOM     24  C   UNL     1      25.717  21.908  10.685 -0.22 -0.00    +0.010 A  
DOCKED: ATOM     25  C   UNL     1      25.195  20.654  10.318 -0.26 +0.00    -0.016 A  
DOCKED: ATOM     26  C   UNL     1      25.343  20.151   9.016 -0.23 -0.01    +0.028 A  
DOCKED: ATOM     27  C   UNL     1      24.777  18.926   8.662 -0.37 -0.01    +0.042 A  
DOCKED: ATOM     28 CL   UNL     1      24.981  18.323   7.061 -0.58 +0.01    -0.084 Cl 
DOCKED: ATOM     29  C   UNL     1      24.047  18.188   9.588 -0.39 -0.00    +0.020 A  
DOCKED: ATOM     30  C   UNL     1      23.899  18.670  10.889 -0.35 -0.00    +0.010 A  
DOCKED: ATOM     31  C   UNL     1      24.483  19.890  11.272 -0.22 +0.00    -0.016 A  
DOCKED: ATOM     32  C   UNL     1      24.327  20.390  12.573 -0.18 -0.01    +0.037 A  
DOCKED: ENDBRANCH  19  22
DOCKED: ENDBRANCH  17  19
DOCKED: ENDBRANCH   4  17
DOCKED: TORSDOF 5
DOCKED: TER
DOCKED: ENDMDL
________________________________________________________________________________


    FINAL DOCKED STATE:
    ________________________


Run:   2 / 50
Time taken for this run:   0.000s

DOCKED: MODEL        2
DOCKED: USER    Run = 2
DOCKED: USER
DOCKED: USER    Estimated Free Energy of Binding    =  -4.84 kcal/mol  [=(1)+(2)+(3)-(4)]
DOCKED: USER
DOCKED: USER    (1) Final Intermolecular Energy     =  -6.33 kcal/mol
DOCKED: USER        vdW + Hbond + desolv Energy     =  -5.87 kcal/mol
DOCKED: USER        Electrostatic Energy            =  -0.46 kcal/mol
DOCKED: USER        Moving Ligand-Fixed Receptor    =  -6.33 kcal/mol
DOCKED: USER        Moving Ligand-Moving Receptor   =  +0.00 kcal/mol
DOCKED: USER    (2) Final Total Internal Energy     =  -2.31 kcal/mol
DOCKED: USER    (3) Torsional Free Energy           =  +1.49 kcal/mol
DOCKED: USER    (4) Unbound System's Energy         =  -2.31 kcal/mol
DOCKED: USER
DOCKED: USER
DOCKED: REMARK  Name = 
DOCKED: REMARK  6 active torsions:
DOCKED: REMARK  status: ('A' for Active; 'I' for Inactive)
DOCKED: REMARK    1  A    between atoms: C_1  and  C_2
DOCKED: REMARK    2  A    between atoms: C_2  and  C_3
DOCKED: REMARK    3  A    between atoms: C_2  and  N_11
DOCKED: REMARK    4  A    between atoms: C_14  and  N_15
DOCKED: REMARK    5  A    between atoms: N_15  and  S_16
DOCKED: REMARK    6  A    between atoms: S_16  and  C_19
DOCKED: REMARK                            x       y       z     vdW  Elec       q    Type
DOCKED: REMARK                         _______ _______ _______ _____ _____    ______ ____
DOCKED: USER                              x       y       z     vdW  Elec       q    Type
DOCKED: USER                           _______ _______ _______ _____ _____    ______ ____
DOCKED: ROOT
DOCKED: ATOM      1  N   UNL     1      10.189  23.835  17.611 -0.08 +0.08    -0.289 N  
DOCKED: ATOM      2  C   UNL     1       9.341  24.129  18.745 -0.09 -0.05    +0.110 C  
DOCKED: ATOM      3  C   UNL     1       9.367  25.659  18.844 -0.13 -0.04    +0.049 C  
DOCKED: ATOM      4  C   UNL     1      10.720  26.016  18.233 -0.16 -0.08    +0.164 C  
DOCKED: ATOM      5  C   UNL     1      10.745  25.001  17.122 -0.20 -0.04    +0.235 C  
DOCKED: ATOM      6  O   UNL     1      11.172  25.120  15.994 -0.22 -0.08    -0.274 OA 
DOCKED: ENDROOT
DOCKED: BRANCH   1   8
DOCKED: ATOM      7  C   UNL     1       8.988  22.856  15.693 -0.39 -0.01    +0.038 C  
DOCKED: ATOM      8  C   UNL     1      10.067  22.644  16.766 -0.19 -0.03    +0.159 C  
DOCKED: BRANCH   8   9
DOCKED: ATOM      9  C   UNL     1      11.446  22.260  16.117 -0.24 -0.01    +0.236 C  
DOCKED: ATOM     10  O   UNL     1      11.696  22.574  14.949 -0.24 -0.06    -0.274 OA 
DOCKED: ATOM     11  N   UNL     1      12.349  21.470  16.830 -0.17 +0.03    -0.296 N  
DOCKED: ATOM     12  C   UNL     1      12.170  20.883  18.158 -0.15 -0.02    +0.136 C  
DOCKED: ATOM     13  C   UNL     1      13.085  21.591  19.163 -0.11 -0.02    +0.179 C  
DOCKED: ATOM     14  O   UNL     1      14.457  21.520  18.743 -0.12 +0.05    -0.377 OA 
DOCKED: ATOM     15  C   UNL     1      14.622  22.142  17.451 -0.29 -0.03    +0.179 C  
DOCKED: ATOM     16  C   UNL     1      13.753  21.433  16.400 -0.25 -0.02    +0.136 C  
DOCKED: ENDBRANCH   8   9
DOCKED: ENDBRANCH   1   8
DOCKED: BRANCH   4  17
DOCKED: ATOM     17  N   UNL     1      10.881  27.427  17.870 -0.12 +0.13    -0.178 NA 
DOCKED: ATOM     18  H   UNL     1      10.092  28.045  18.067 -0.28 -0.28    +0.149 HD 
DOCKED: BRANCH  17  19
DOCKED: ATOM     19  S   UNL     1      12.298  28.177  18.466 -0.20 -0.01    +0.059 S  
DOCKED: ATOM     20  O   UNL     1      12.554  29.278  17.557 -0.33 -0.05    -0.153 OA 
DOCKED: ATOM     21  O   UNL     1      12.093  28.415  19.887 -0.03 +0.04    -0.153 OA 
DOCKED: BRANCH  19  22
DOCKED: ATOM     22  C   UNL     1      13.591  26.995  18.237 -0.12 +0.01    +0.106 A  
DOCKED: ATOM     23  C   UNL     1      13.694  25.921  19.120 -0.06 -0.00    +0.029 A  
DOCKED: ATOM     24  C   UNL     1      14.806  25.079  19.044 -0.07 -0.00    +0.010 A  
DOCKED: ATOM     25  C   UNL     1      15.832  25.319  18.110 -0.14 +0.00    -0.016 A  
DOCKED: ATOM     26  C   UNL     1      16.987  24.523  18.071 -0.18 -0.00    +0.028 A  
DOCKED: ATOM     27  C   UNL     1      18.011  24.807  17.167 -0.24 -0.01    +0.042 A  
DOCKED: ATOM     28 CL   UNL     1      19.416  23.811  17.129 -0.30 +0.02    -0.084 Cl 
DOCKED: ATOM     29  C   UNL     1      17.911  25.889  16.299 -0.28 +0.00    +0.020 A  
DOCKED: ATOM     30  C   UNL     1      16.764  26.684  16.319 -0.30 +0.00    +0.010 A  
DOCKED: ATOM     31  C   UNL     1      15.710  26.399  17.204 -0.19 -0.00    -0.016 A  
DOCKED: ATOM     32  C   UNL     1      14.560  27.200  17.243 -0.01 +0.01    +0.037 A  
DOCKED: ENDBRANCH  19  22
DOCKED: ENDBRANCH  17  19
DOCKED: ENDBRANCH   4  17
DOCKED: TORSDOF 5
DOCKED: TER
DOCKED: ENDMDL
________________________________________________________________________________


    FINAL DOCKED STATE:
    ________________________


Run:   3 / 50
Time taken for this run:   0.000s

DOCKED: MODEL        3
DOCKED: USER    Run = 3
DOCKED: USER
DOCKED: USER    Estimated Free Energy of Binding    =  -5.59 kcal/mol  [=(1)+(2)+(3)-(4)]
DOCKED: USER
DOCKED: USER    (1) Final Intermolecular Energy     =  -7.08 kcal/mol
DOCKED: USER        vdW + Hbond + desolv Energy     =  -7.12 kcal/mol
DOCKED: USER        Electrostatic Energy            =  +0.04 kcal/mol
DOCKED: USER        Moving Ligand-Fixed Receptor    =  -7.08 kcal/mol
DOCKED: USER        Moving Ligand-Moving Receptor   =  +0.00 kcal/mol
DOCKED: USER    (2) Final Total Internal Energy     =  -1.96 kcal/mol
DOCKED: USER    (3) Torsional Free Energy           =  +1.49 kcal/mol
DOCKED: USER    (4) Unbound System's Energy         =  -1.96 kcal/mol
DOCKED: USER
DOCKED: USER
DOCKED: REMARK  Name = 
DOCKED: REMARK  6 active torsions:
DOCKED: REMARK  status: ('A' for Active; 'I' for Inactive)
DOCKED: REMARK    1  A    between atoms: C_1  and  C_2
DOCKED: REMARK    2  A    between atoms: C_2  and  C_3
DOCKED: REMARK    3  A    between atoms: C_2  and  N_11
DOCKED: REMARK    4  A    between atoms: C_14  and  N_15
DOCKED: REMARK    5  A    between atoms: N_15  and  S_16
DOCKED: REMARK    6  A    between atoms: S_16  and  C_19
DOCKED: REMARK                            x       y       z     vdW  Elec       q    Type
DOCKED: REMARK                         _______ _______ _______ _____ _____    ______ ____
DOCKED: USER                              x       y       z     vdW  Elec       q    Type
DOCKED: USER                           _______ _______ _______ _____ _____    ______ ____
DOCKED: ROOT
DOCKED: ATOM      1  N   UNL     1      11.595  20.838  16.674 -0.16 +0.04    -0.289 N  
DOCKED: ATOM      2  C   UNL     1      11.399  21.235  18.050 -0.15 -0.02    +0.110 C  
DOCKED: ATOM      3  C   UNL     1      12.684  21.995  18.406 -0.17 -0.01    +0.049 C  
DOCKED: ATOM      4  C   UNL     1      13.717  21.368  17.473 -0.22 -0.03    +0.164 C  
DOCKED: ATOM      5  C   UNL     1      12.856  21.209  16.249 -0.20 -0.03    +0.235 C  
DOCKED: ATOM      6  O   UNL     1      13.158  21.351  15.084 -0.32 +0.01    -0.274 OA 
DOCKED: ENDROOT
DOCKED: BRANCH   1   8
DOCKED: ATOM      7  C   UNL     1      10.149  19.110  15.671 -0.44 -0.01    +0.038 C  
DOCKED: ATOM      8  C   UNL     1      10.513  20.602  15.714 -0.25 -0.02    +0.159 C  
DOCKED: BRANCH   8   9
DOCKED: ATOM      9  C   UNL     1       9.255  21.485  16.044 -0.24 -0.04    +0.236 C  
DOCKED: ATOM     10  O   UNL     1       8.188  20.955  16.370 -0.18 +0.06    -0.274 OA 
DOCKED: ATOM     11  N   UNL     1       9.315  22.867  15.865 -0.21 +0.06    -0.296 N  
DOCKED: ATOM     12  C   UNL     1      10.435  23.655  15.350 -0.38 -0.00    +0.136 C  
DOCKED: ATOM     13  C   UNL     1      11.047  24.486  16.484 -0.22 +0.00    +0.179 C  
DOCKED: ATOM     14  O   UNL     1      10.054  25.328  17.093 -0.17 +0.18    -0.377 OA 
DOCKED: ATOM     15  C   UNL     1       8.979  24.531  17.633 -0.15 -0.10    +0.179 C  
DOCKED: ATOM     16  C   UNL     1       8.306  23.712  16.519 -0.22 -0.06    +0.136 C  
DOCKED: ENDBRANCH   8   9
DOCKED: ENDBRANCH   1   8
DOCKED: BRANCH   4  17
DOCKED: ATOM     17  N   UNL     1      14.964  22.127  17.334 -0.28 +0.04    -0.178 NA 
DOCKED: ATOM     18  H   UNL     1      15.341  22.222  16.390 -0.19 -0.04    +0.149 HD 
DOCKED: BRANCH  17  19
DOCKED: ATOM     19  S   UNL     1      14.959  23.678  18.055 -0.28 -0.00    +0.059 S  
DOCKED: ATOM     20  O   UNL     1      13.844  24.376  17.444 -0.14 -0.01    -0.153 OA 
DOCKED: ATOM     21  O   UNL     1      15.017  23.481  19.496 -0.07 +0.02    -0.153 OA 
DOCKED: BRANCH  19  22
DOCKED: ATOM     22  C   UNL     1      16.440  24.463  17.498 -0.22 -0.00    +0.106 A  
DOCKED: ATOM     23  C   UNL     1      16.363  25.734  16.930 -0.22 +0.00    +0.029 A  
DOCKED: ATOM     24  C   UNL     1      17.501  26.289  16.340 -0.29 +0.00    +0.010 A  
DOCKED: ATOM     25  C   UNL     1      18.711  25.571  16.289 -0.25 +0.00    -0.016 A  
DOCKED: ATOM     26  C   UNL     1      19.842  26.088  15.638 -0.16 -0.00    +0.028 A  
DOCKED: ATOM     27  C   UNL     1      21.017  25.339  15.560 -0.20 -0.01    +0.042 A  
DOCKED: ATOM     28 CL   UNL     1      22.396  25.997  14.765 -0.24 +0.02    -0.084 Cl 
DOCKED: ATOM     29  C   UNL     1      21.084  24.066  16.114 -0.24 -0.01    +0.020 A  
DOCKED: ATOM     30  C   UNL     1      19.971  23.543  16.773 -0.20 -0.00    +0.010 A  
DOCKED: ATOM     31  C   UNL     1      18.787  24.290  16.885 -0.23 +0.00    -0.016 A  
DOCKED: ATOM     32  C   UNL     1      17.658  23.768  17.532 -0.24 -0.01    +0.037 A  
DOCKED: ENDBRANCH  19  22
DOCKED: ENDBRANCH  17  19
DOCKED: ENDBRANCH   4  17
DOCKED: TORSDOF 5
DOCKED: TER
DOCKED: ENDMDL
________________________________________________________________________________


    FINAL DOCKED STATE:
    ________________________


Run:   4 / 50
Time taken for this run:   0.000s

DOCKED: MODEL        4
DOCKED: USER    Run = 4
DOCKED: USER
DOCKED: USER    Estimated Free Energy of Binding    =  -3.89 kcal/mol  [=(1)+(2)+(3)-(4)]
DOCKED: USER
DOCKED: USER    (1) Final Intermolecular Energy     =  -5.38 kcal/mol
DOCKED: USER        vdW + Hbond + desolv Energy     =  -5.39 kcal/mol
DOCKED: USER        Electrostatic Energy            =  +0.01 kcal/mol
DOCKED: USER        Moving Ligand-Fixed Receptor    =  -5.38 kcal/mol
DOCKED: USER        Moving Ligand-Moving Receptor   =  +0.00 kcal/mol
DOCKED: USER    (2) Final Total Internal Energy     =  -2.96 kcal/mol
DOCKED: USER    (3) Torsional Free Energy           =  +1.49 kcal/mol
DOCKED: USER    (4) Unbound System's Energy         =  -2.96 kcal/mol
DOCKED: USER
DOCKED: USER
DOCKED: REMARK  Name = 
DOCKED: REMARK  6 active torsions:
DOCKED: REMARK  status: ('A' for Active; 'I' for Inactive)
DOCKED: REMARK    1  A    between atoms: C_1  and  C_2
DOCKED: REMARK    2  A    between atoms: C_2  and  C_3
DOCKED: REMARK    3  A    between atoms: C_2  and  N_11
DOCKED: REMARK    4  A    between atoms: C_14  and  N_15
DOCKED: REMARK    5  A    between atoms: N_15  and  S_16
DOCKED: REMARK    6  A    between atoms: S_16  and  C_19
DOCKED: REMARK                            x       y       z     vdW  Elec       q    Type
DOCKED: REMARK                         _______ _______ _______ _____ _____    ______ ____
DOCKED: USER                              x       y       z     vdW  Elec       q    Type
DOCKED: USER                           _______ _______ _______ _____ _____    ______ ____
DOCKED: ROOT
DOCKED: ATOM      1  N   UNL     1       8.113  19.071  16.744 -0.15 +0.03    -0.289 N  
DOCKED: ATOM      2  C   UNL     1       8.867  18.546  17.860 -0.18 -0.01    +0.110 C  
DOCKED: ATOM      3  C   UNL     1      10.286  19.085  17.639 -0.21 -0.01    +0.049 C  
DOCKED: ATOM      4  C   UNL     1      10.349  19.261  16.123 -0.35 -0.02    +0.164 C  
DOCKED: ATOM      5  C   UNL     1       8.949  19.764  15.891 -0.27 -0.03    +0.235 C  
DOCKED: ATOM      6  O   UNL     1       8.565  20.605  15.108 -0.13 +0.05    -0.274 OA 
DOCKED: ENDROOT
DOCKED: BRANCH   1   8
DOCKED: ATOM      7  C   UNL     1       5.944  18.264  17.596 -0.17 -0.00    +0.038 C  
DOCKED: ATOM      8  C   UNL     1       6.670  19.331  16.763 -0.18 -0.02    +0.159 C  
DOCKED: BRANCH   8   9
DOCKED: ATOM      9  C   UNL     1       6.357  20.777  17.294 -0.09 -0.05    +0.236 C  
DOCKED: ATOM     10  O   UNL     1       7.027  21.263  18.211 -0.03 +0.07    -0.274 OA 
DOCKED: ATOM     11  N   UNL     1       5.253  21.471  16.800 -0.06 +0.08    -0.296 N  
DOCKED: ATOM     12  C   UNL     1       4.264  21.005  15.828 -0.18 -0.03    +0.136 C  
DOCKED: ATOM     13  C   UNL     1       4.442  21.762  14.507 -0.30 -0.05    +0.179 C  
DOCKED: ATOM     14  O   UNL     1       4.340  23.181  14.714 -0.23 +0.15    -0.377 OA 
DOCKED: ATOM     15  C   UNL     1       5.349  23.629  15.643 -0.22 -0.09    +0.179 C  
DOCKED: ATOM     16  C   UNL     1       5.181  22.925  16.999 -0.13 -0.06    +0.136 C  
DOCKED: ENDBRANCH   8   9
DOCKED: ENDBRANCH   1   8
DOCKED: BRANCH   4  17
DOCKED: ATOM     17  N   UNL     1      11.458  20.091  15.643 -0.32 +0.02    -0.178 NA 
DOCKED: ATOM     18  H   UNL     1      11.353  20.508  14.717 +0.09 -0.01    +0.149 HD 
DOCKED: BRANCH  17  19
DOCKED: ATOM     19  S   UNL     1      11.969  21.320  16.718 -0.40 -0.01    +0.059 S  
DOCKED: ATOM     20  O   UNL     1      12.351  20.625  17.932 -0.18 +0.02    -0.153 OA 
DOCKED: ATOM     21  O   UNL     1      12.924  22.149  16.000 -0.35 -0.01    -0.153 OA 
DOCKED: BRANCH  19  22
DOCKED: ATOM     22  C   UNL     1      10.518  22.259  17.085 -0.15 -0.02    +0.106 A  
DOCKED: ATOM     23  C   UNL     1       9.929  23.021  16.077 -0.32 -0.00    +0.029 A  
DOCKED: ATOM     24  C   UNL     1       8.885  23.891  16.401 -0.25 -0.00    +0.010 A  
DOCKED: ATOM     25  C   UNL     1       8.442  24.026  17.730 -0.17 +0.01    -0.016 A  
DOCKED: ATOM     26  C   UNL     1       7.442  24.947  18.079 -0.08 -0.03    +0.028 A  
DOCKED: ATOM     27  C   UNL     1       7.051  25.096  19.410 -0.08 -0.03    +0.042 A  
DOCKED: ATOM     28 CL   UNL     1       5.815  26.225  19.815 -0.11 +0.07    -0.084 Cl 
DOCKED: ATOM     29  C   UNL     1       7.653  24.344  20.414 -0.03 -0.01    +0.020 A  
DOCKED: ATOM     30  C   UNL     1       8.641  23.418  20.082 -0.02 -0.00    +0.010 A  
DOCKED: ATOM     31  C   UNL     1       9.031  23.234  18.744 -0.07 +0.01    -0.016 A  
DOCKED: ATOM     32  C   UNL     1      10.034  22.316  18.401 -0.07 -0.01    +0.037 A  
DOCKED: ENDBRANCH  19  22
DOCKED: ENDBRANCH  17  19
DOCKED: ENDBRANCH   4  17
DOCKED: TORSDOF 5
DOCKED: TER
DOCKED: ENDMDL
________________________________________________________________________________


    FINAL DOCKED STATE:
    ________________________


Run:   5 / 50
Time taken for this run:   0.000s

DOCKED: MODEL        5
DOCKED: USER    Run = 5
DOCKED: USER
DOCKED: USER    Estimated Free Energy of Binding    =  -5.11 kcal/mol  [=(1)+(2)+(3)-(4)]
DOCKED: USER
DOCKED: USER    (1) Final Intermolecular Energy     =  -6.60 kcal/mol
DOCKED: USER        vdW + Hbond + desolv Energy     =  -6.58 kcal/mol
DOCKED: USER        Electrostatic Energy            =  -0.02 kcal/mol
DOCKED: USER        Moving Ligand-Fixed Receptor    =  -6.60 kcal/mol
DOCKED: USER        Moving Ligand-Moving Receptor   =  +0.00 kcal/mol
DOCKED: USER    (2) Final Total Internal Energy     =  -2.03 kcal/mol
DOCKED: USER    (3) Torsional Free Energy           =  +1.49 kcal/mol
DOCKED: USER    (4) Unbound System's Energy         =  -2.03 kcal/mol
DOCKED: USER
DOCKED: USER
DOCKED: REMARK  Name = 
DOCKED: REMARK  6 active torsions:
DOCKED: REMARK  status: ('A' for Active; 'I' for Inactive)
DOCKED: REMARK    1  A    between atoms: C_1  and  C_2
DOCKED: REMARK    2  A    between atoms: C_2  and  C_3
DOCKED: REMARK    3  A    between atoms: C_2  and  N_11
DOCKED: REMARK    4  A    between atoms: C_14  and  N_15
DOCKED: REMARK    5  A    between atoms: N_15  and  S_16
DOCKED: REMARK    6  A    between atoms: S_16  and  C_19
DOCKED: REMARK                            x       y       z     vdW  Elec       q    Type
DOCKED: REMARK                         _______ _______ _______ _____ _____    ______ ____
DOCKED: USER                              x       y       z     vdW  Elec       q    Type
DOCKED: USER                           _______ _______ _______ _____ _____    ______ ____
DOCKED: ROOT
DOCKED: ATOM      1  N   UNL     1       8.978  23.343  16.909 -0.13 +0.10    -0.289 N  
DOCKED: ATOM      2  C   UNL     1       9.792  23.799  15.805 -0.34 -0.02    +0.110 C  
DOCKED: ATOM      3  C   UNL     1      10.814  24.739  16.458 -0.30 -0.00    +0.049 C  
DOCKED: ATOM      4  C   UNL     1      10.068  25.247  17.689 -0.17 -0.08    +0.164 C  
DOCKED: ATOM      5  C   UNL     1       9.366  23.972  18.075 -0.10 -0.09    +0.235 C  
DOCKED: ATOM      6  O   UNL     1       9.141  23.534  19.183 -0.03 +0.09    -0.274 OA 
DOCKED: ENDROOT
DOCKED: BRANCH   1   8
DOCKED: ATOM      7  C   UNL     1       6.844  22.227  16.376 -0.27 -0.01    +0.038 C  
DOCKED: ATOM      8  C   UNL     1       8.262  22.063  16.943 -0.18 -0.04    +0.159 C  
DOCKED: BRANCH   8   9
DOCKED: ATOM      9  C   UNL     1       9.056  20.945  16.174 -0.23 -0.04    +0.236 C  
DOCKED: ATOM     10  O   UNL     1       8.518  20.313  15.260 -0.25 +0.05    -0.274 OA 
DOCKED: ATOM     11  N   UNL     1      10.339  20.595  16.596 -0.14 +0.04    -0.296 N  
DOCKED: ATOM     12  C   UNL     1      11.081  21.124  17.740 -0.16 -0.02    +0.136 C  
DOCKED: ATOM     13  C   UNL     1      12.245  21.989  17.246 -0.21 -0.02    +0.179 C  
DOCKED: ATOM     14  O   UNL     1      13.104  21.238  16.371 -0.22 +0.05    -0.377 OA 
DOCKED: ATOM     15  C   UNL     1      12.365  20.761  15.227 -0.35 -0.02    +0.179 C  
DOCKED: ATOM     16  C   UNL     1      11.210  19.851  15.676 -0.38 -0.02    +0.136 C  
DOCKED: ENDBRANCH   8   9
DOCKED: ENDBRANCH   1   8
DOCKED: BRANCH   4  17
DOCKED: ATOM     17  N   UNL     1      10.912  25.891  18.700 -0.10 +0.07    -0.178 NA 
DOCKED: ATOM     18  H   UNL     1      11.398  25.275  19.354 +0.02 -0.04    +0.149 HD 
DOCKED: BRANCH  17  19
DOCKED: ATOM     19  S   UNL     1      12.051  27.014  18.092 -0.25 -0.00    +0.059 S  
DOCKED: ATOM     20  O   UNL     1      11.520  27.433  16.810 -0.55 -0.06    -0.153 OA 
DOCKED: ATOM     21  O   UNL     1      12.305  27.982  19.148 -0.07 +0.03    -0.153 OA 
DOCKED: BRANCH  19  22
DOCKED: ATOM     22  C   UNL     1      13.515  26.077  17.774 -0.12 +0.01    +0.106 A  
DOCKED: ATOM     23  C   UNL     1      13.597  24.766  18.242 -0.13 -0.00    +0.029 A  
DOCKED: ATOM     24  C   UNL     1      14.810  24.080  18.139 -0.17 -0.00    +0.010 A  
DOCKED: ATOM     25  C   UNL     1      15.949  24.703  17.596 -0.20 +0.00    -0.016 A  
DOCKED: ATOM     26  C   UNL     1      17.190  24.049  17.550 -0.27 -0.00    +0.028 A  
DOCKED: ATOM     27  C   UNL     1      18.316  24.703  17.050 -0.25 -0.01    +0.042 A  
DOCKED: ATOM     28 CL   UNL     1      19.827  23.877  16.994 -0.31 +0.02    -0.084 Cl 
DOCKED: ATOM     29  C   UNL     1      18.232  26.016  16.599 -0.23 -0.00    +0.020 A  
DOCKED: ATOM     30  C   UNL     1      17.003  26.676  16.629 -0.25 +0.00    +0.010 A  
DOCKED: ATOM     31  C   UNL     1      15.852  26.027  17.105 -0.18 -0.00    -0.016 A  
DOCKED: ATOM     32  C   UNL     1      14.615  26.686  17.153 -0.05 +0.01    +0.037 A  
DOCKED: ENDBRANCH  19  22
DOCKED: ENDBRANCH  17  19
DOCKED: ENDBRANCH   4  17
DOCKED: TORSDOF 5
DOCKED: TER
DOCKED: ENDMDL
________________________________________________________________________________


    FINAL DOCKED STATE:
    ________________________


Run:   6 / 50
Time taken for this run:   0.000s

DOCKED: MODEL        6
DOCKED: USER    Run = 6
DOCKED: USER
DOCKED: USER    Estimated Free Energy of Binding    =  -5.30 kcal/mol  [=(1)+(2)+(3)-(4)]
DOCKED: USER
DOCKED: USER    (1) Final Intermolecular Energy     =  -6.79 kcal/mol
DOCKED: USER        vdW + Hbond + desolv Energy     =  -6.84 kcal/mol
DOCKED: USER        Electrostatic Energy            =  +0.05 kcal/mol
DOCKED: USER        Moving Ligand-Fixed Receptor    =  -6.79 kcal/mol
DOCKED: USER        Moving Ligand-Moving Receptor   =  +0.00 kcal/mol
DOCKED: USER    (2) Final Total Internal Energy     =  -1.93 kcal/mol
DOCKED: USER    (3) Torsional Free Energy           =  +1.49 kcal/mol
DOCKED: USER    (4) Unbound System's Energy         =  -1.93 kcal/mol
DOCKED: USER
DOCKED: USER
DOCKED: REMARK  Name = 
DOCKED: REMARK  6 active torsions:
DOCKED: REMARK  status: ('A' for Active; 'I' for Inactive)
DOCKED: REMARK    1  A    between atoms: C_1  and  C_2
DOCKED: REMARK    2  A    between atoms: C_2  and  C_3
DOCKED: REMARK    3  A    between atoms: C_2  and  N_11
DOCKED: REMARK    4  A    between atoms: C_14  and  N_15
DOCKED: REMARK    5  A    between atoms: N_15  and  S_16
DOCKED: REMARK    6  A    between atoms: S_16  and  C_19
DOCKED: REMARK                            x       y       z     vdW  Elec       q    Type
DOCKED: REMARK                         _______ _______ _______ _____ _____    ______ ____
DOCKED: USER                              x       y       z     vdW  Elec       q    Type
DOCKED: USER                           _______ _______ _______ _____ _____    ______ ____
DOCKED: ROOT
DOCKED: ATOM      1  N   UNL     1      11.748  20.809  16.893 -0.14 +0.04    -0.289 N  
DOCKED: ATOM      2  C   UNL     1      11.324  21.154  18.231 -0.14 -0.02    +0.110 C  
DOCKED: ATOM      3  C   UNL     1      12.533  21.885  18.829 -0.14 -0.01    +0.049 C  
DOCKED: ATOM      4  C   UNL     1      13.707  21.285  18.058 -0.19 -0.03    +0.164 C  
DOCKED: ATOM      5  C   UNL     1      13.063  21.184  16.701 -0.06 -0.03    +0.235 C  
DOCKED: ATOM      6  O   UNL     1      13.558  21.369  15.610 -0.34 +0.02    -0.274 OA 
DOCKED: ENDROOT
DOCKED: BRANCH   1   8
DOCKED: ATOM      7  C   UNL     1      10.643  19.126  15.468 -0.49 -0.01    +0.038 C  
DOCKED: ATOM      8  C   UNL     1      10.842  20.622  15.755 -0.28 -0.02    +0.159 C  
DOCKED: BRANCH   8   9
DOCKED: ATOM      9  C   UNL     1       9.466  21.343  15.997 -0.23 -0.04    +0.236 C  
DOCKED: ATOM     10  O   UNL     1       8.441  20.682  16.193 -0.21 +0.05    -0.274 OA 
DOCKED: ATOM     11  N   UNL     1       9.384  22.731  15.885 -0.20 +0.06    -0.296 N  
DOCKED: ATOM     12  C   UNL     1      10.450  23.664  15.517 -0.37 -0.00    +0.136 C  
DOCKED: ATOM     13  C   UNL     1      10.855  24.494  16.740 -0.24 -0.01    +0.179 C  
DOCKED: ATOM     14  O   UNL     1       9.720  25.188  17.284 -0.14 +0.22    -0.377 OA 
DOCKED: ATOM     15  C   UNL     1       8.697  24.250  17.680 -0.15 -0.10    +0.179 C  
DOCKED: ATOM     16  C   UNL     1       8.229  23.424  16.471 -0.25 -0.06    +0.136 C  
DOCKED: ENDBRANCH   8   9
DOCKED: ENDBRANCH   1   8
DOCKED: BRANCH   4  17
DOCKED: ATOM     17  N   UNL     1      14.962  22.037  18.161 -0.21 +0.03    -0.178 NA 
DOCKED: ATOM     18  H   UNL     1      15.689  21.813  17.480 -0.31 -0.06    +0.149 HD 
DOCKED: BRANCH  17  19
DOCKED: ATOM     19  S   UNL     1      14.792  23.738  18.208 -0.25 -0.00    +0.059 S  
DOCKED: ATOM     20  O   UNL     1      13.653  24.028  17.358 -0.16 -0.01    -0.153 OA 
DOCKED: ATOM     21  O   UNL     1      14.798  24.133  19.608 -0.04 +0.02    -0.153 OA 
DOCKED: BRANCH  19  22
DOCKED: ATOM     22  C   UNL     1      16.226  24.379  17.399 -0.21 -0.00    +0.106 A  
DOCKED: ATOM     23  C   UNL     1      17.397  23.622  17.392 -0.27 -0.00    +0.029 A  
DOCKED: ATOM     24  C   UNL     1      18.575  24.191  16.901 -0.24 -0.00    +0.010 A  
DOCKED: ATOM     25  C   UNL     1      18.598  25.522  16.442 -0.26 +0.00    -0.016 A  
DOCKED: ATOM     26  C   UNL     1      19.789  26.128  16.012 -0.19 -0.00    +0.028 A  
DOCKED: ATOM     27  C   UNL     1      19.796  27.462  15.604 -0.14 -0.00    +0.042 A  
DOCKED: ATOM     28 CL   UNL     1      21.267  28.182  15.070 -0.15 +0.01    -0.084 Cl 
DOCKED: ATOM     29  C   UNL     1      18.628  28.217  15.627 -0.16 -0.00    +0.020 A  
DOCKED: ATOM     30  C   UNL     1      17.435  27.626  16.043 -0.24 +0.00    +0.010 A  
DOCKED: ATOM     31  C   UNL     1      17.401  26.277  16.433 -0.28 -0.00    -0.016 A  
DOCKED: ATOM     32  C   UNL     1      16.210  25.677  16.867 -0.16 +0.00    +0.037 A  
DOCKED: ENDBRANCH  19  22
DOCKED: ENDBRANCH  17  19
DOCKED: ENDBRANCH   4  17
DOCKED: TORSDOF 5
DOCKED: TER
DOCKED: ENDMDL
________________________________________________________________________________


    FINAL DOCKED STATE:
    ________________________


Run:   7 / 50
Time taken for this run:   0.000s

DOCKED: MODEL        7
DOCKED: USER    Run = 7
DOCKED: USER
DOCKED: USER    Estimated Free Energy of Binding    =  -4.58 kcal/mol  [=(1)+(2)+(3)-(4)]
DOCKED: USER
DOCKED: USER    (1) Final Intermolecular Energy     =  -6.07 kcal/mol
DOCKED: USER        vdW + Hbond + desolv Energy     =  -5.83 kcal/mol
DOCKED: USER        Electrostatic Energy            =  -0.25 kcal/mol
DOCKED: USER        Moving Ligand-Fixed Receptor    =  -6.07 kcal/mol
DOCKED: USER        Moving Ligand-Moving Receptor   =  +0.00 kcal/mol
DOCKED: USER    (2) Final Total Internal Energy     =  -3.01 kcal/mol
DOCKED: USER    (3) Torsional Free Energy           =  +1.49 kcal/mol
DOCKED: USER    (4) Unbound System's Energy         =  -3.01 kcal/mol
DOCKED: USER
DOCKED: USER
DOCKED: REMARK  Name = 
DOCKED: REMARK  6 active torsions:
DOCKED: REMARK  status: ('A' for Active; 'I' for Inactive)
DOCKED: REMARK    1  A    between atoms: C_1  and  C_2
DOCKED: REMARK    2  A    between atoms: C_2  and  C_3
DOCKED: REMARK    3  A    between atoms: C_2  and  N_11
DOCKED: REMARK    4  A    between atoms: C_14  and  N_15
DOCKED: REMARK    5  A    between atoms: N_15  and  S_16
DOCKED: REMARK    6  A    between atoms: S_16  and  C_19
DOCKED: REMARK                            x       y       z     vdW  Elec       q    Type
DOCKED: REMARK                         _______ _______ _______ _____ _____    ______ ____
DOCKED: USER                              x       y       z     vdW  Elec       q    Type
DOCKED: USER                           _______ _______ _______ _____ _____    ______ ____
DOCKED: ROOT
DOCKED: ATOM      1  N   UNL     1       8.751  24.040  17.640 -0.11 +0.14    -0.289 N  
DOCKED: ATOM      2  C   UNL     1       8.469  23.059  18.665 -0.07 -0.04    +0.110 C  
DOCKED: ATOM      3  C   UNL     1       8.581  21.714  17.935 -0.10 -0.01    +0.049 C  
DOCKED: ATOM      4  C   UNL     1       8.231  22.081  16.494 -0.23 -0.05    +0.164 C  
DOCKED: ATOM      5  C   UNL     1       8.925  23.415  16.421 -0.22 -0.08    +0.235 C  
DOCKED: ATOM      6  O   UNL     1       9.526  23.909  15.492 -0.30 +0.05    -0.274 OA 
DOCKED: ENDROOT
DOCKED: BRANCH   1   8
DOCKED: ATOM      7  C   UNL     1       9.147  25.749  19.374 -0.11 -0.03    +0.038 C  
DOCKED: ATOM      8  C   UNL     1       9.313  25.370  17.894 -0.05 -0.13    +0.159 C  
DOCKED: BRANCH   8   9
DOCKED: ATOM      9  C   UNL     1      10.820  25.447  17.453 -0.18 -0.06    +0.236 C  
DOCKED: ATOM     10  O   UNL     1      11.139  26.055  16.426 -0.43 -0.11    -0.274 OA 
DOCKED: ATOM     11  N   UNL     1      11.786  24.738  18.167 -0.07 +0.04    -0.296 N  
DOCKED: ATOM     12  C   UNL     1      11.581  23.851  19.312 -0.04 -0.03    +0.136 C  
DOCKED: ATOM     13  C   UNL     1      12.143  24.506  20.579 -0.01 -0.04    +0.179 C  
DOCKED: ATOM     14  O   UNL     1      13.533  24.829  20.413 +0.00 +0.06    -0.377 OA 
DOCKED: ATOM     15  C   UNL     1      13.711  25.737  19.306 -0.04 -0.02    +0.179 C  
DOCKED: ATOM     16  C   UNL     1      13.200  25.102  18.003 -0.14 +0.00    +0.136 C  
DOCKED: ENDBRANCH   8   9
DOCKED: ENDBRANCH   1   8
DOCKED: BRANCH   4  17
DOCKED: ATOM     17  N   UNL     1       8.593  21.071  15.495 -0.26 +0.03    -0.178 NA 
DOCKED: ATOM     18  H   UNL     1       8.942  21.415  14.599 +0.06 -0.01    +0.149 HD 
DOCKED: BRANCH  17  19
DOCKED: ATOM     19  S   UNL     1       9.664  19.854  16.042 -0.50 -0.01    +0.059 S  
DOCKED: ATOM     20  O   UNL     1       8.999  19.249  17.180 -0.19 +0.02    -0.153 OA 
DOCKED: ATOM     21  O   UNL     1      10.034  19.055  14.883 -0.45 +0.03    -0.153 OA 
DOCKED: BRANCH  19  22
DOCKED: ATOM     22  C   UNL     1      11.082  20.711  16.656 -0.24 -0.01    +0.106 A  
DOCKED: ATOM     23  C   UNL     1      11.824  21.507  15.784 -0.37 -0.00    +0.029 A  
DOCKED: ATOM     24  C   UNL     1      13.033  22.053  16.221 -0.26 +0.00    +0.010 A  
DOCKED: ATOM     25  C   UNL     1      13.521  21.787  17.514 -0.30 +0.00    -0.016 A  
DOCKED: ATOM     26  C   UNL     1      14.768  22.271  17.941 -0.28 -0.00    +0.028 A  
DOCKED: ATOM     27  C   UNL     1      15.251  21.956  19.211 -0.16 -0.00    +0.042 A  
DOCKED: ATOM     28 CL   UNL     1      16.779  22.569  19.718 -0.16 +0.01    -0.084 Cl 
DOCKED: ATOM     29  C   UNL     1      14.514  21.149  20.071 -0.14 -0.00    +0.020 A  
DOCKED: ATOM     30  C   UNL     1      13.269  20.668  19.665 -0.14 -0.00    +0.010 A  
DOCKED: ATOM     31  C   UNL     1      12.752  20.994  18.400 -0.17 +0.00    -0.016 A  
DOCKED: ATOM     32  C   UNL     1      11.508  20.504  17.976 -0.15 -0.01    +0.037 A  
DOCKED: ENDBRANCH  19  22
DOCKED: ENDBRANCH  17  19
DOCKED: ENDBRANCH   4  17
DOCKED: TORSDOF 5
DOCKED: TER
DOCKED: ENDMDL
________________________________________________________________________________


    FINAL DOCKED STATE:
    ________________________


Run:   8 / 50
Time taken for this run:   0.000s

DOCKED: MODEL        8
DOCKED: USER    Run = 8
DOCKED: USER
DOCKED: USER    Estimated Free Energy of Binding    =  -4.81 kcal/mol  [=(1)+(2)+(3)-(4)]
DOCKED: USER
DOCKED: USER    (1) Final Intermolecular Energy     =  -6.30 kcal/mol
DOCKED: USER        vdW + Hbond + desolv Energy     =  -5.83 kcal/mol
DOCKED: USER        Electrostatic Energy            =  -0.47 kcal/mol
DOCKED: USER        Moving Ligand-Fixed Receptor    =  -6.30 kcal/mol
DOCKED: USER        Moving Ligand-Moving Receptor   =  +0.00 kcal/mol
DOCKED: USER    (2) Final Total Internal Energy     =  -2.35 kcal/mol
DOCKED: USER    (3) Torsional Free Energy           =  +1.49 kcal/mol
DOCKED: USER    (4) Unbound System's Energy         =  -2.35 kcal/mol
DOCKED: USER
DOCKED: USER
DOCKED: REMARK  Name = 
DOCKED: REMARK  6 active torsions:
DOCKED: REMARK  status: ('A' for Active; 'I' for Inactive)
DOCKED: REMARK    1  A    between atoms: C_1  and  C_2
DOCKED: REMARK    2  A    between atoms: C_2  and  C_3
DOCKED: REMARK    3  A    between atoms: C_2  and  N_11
DOCKED: REMARK    4  A    between atoms: C_14  and  N_15
DOCKED: REMARK    5  A    between atoms: N_15  and  S_16
DOCKED: REMARK    6  A    between atoms: S_16  and  C_19
DOCKED: REMARK                            x       y       z     vdW  Elec       q    Type
DOCKED: REMARK                         _______ _______ _______ _____ _____    ______ ____
DOCKED: USER                              x       y       z     vdW  Elec       q    Type
DOCKED: USER                           _______ _______ _______ _____ _____    ______ ____
DOCKED: ROOT
DOCKED: ATOM      1  N   UNL     1      10.143  23.781  17.608 -0.08 +0.08    -0.289 N  
DOCKED: ATOM      2  C   UNL     1       9.287  24.127  18.721 -0.10 -0.05    +0.110 C  
DOCKED: ATOM      3  C   UNL     1       9.344  25.659  18.773 -0.13 -0.04    +0.049 C  
DOCKED: ATOM      4  C   UNL     1      10.712  25.968  18.169 -0.16 -0.08    +0.164 C  
DOCKED: ATOM      5  C   UNL     1      10.729  24.919  17.090 -0.20 -0.04    +0.235 C  
DOCKED: ATOM      6  O   UNL     1      11.173  24.994  15.965 -0.19 -0.08    -0.274 OA 
DOCKED: ENDROOT
DOCKED: BRANCH   1   8
DOCKED: ATOM      7  C   UNL     1       8.899  22.746  15.747 -0.38 -0.01    +0.038 C  
DOCKED: ATOM      8  C   UNL     1      10.005  22.567  16.798 -0.19 -0.03    +0.159 C  
DOCKED: BRANCH   8   9
DOCKED: ATOM      9  C   UNL     1      11.370  22.171  16.126 -0.24 -0.01    +0.236 C  
DOCKED: ATOM     10  O   UNL     1      11.562  22.389  14.926 -0.18 -0.05    -0.274 OA 
DOCKED: ATOM     11  N   UNL     1      12.328  21.475  16.865 -0.16 +0.03    -0.296 N  
DOCKED: ATOM     12  C   UNL     1      12.223  21.002  18.246 -0.16 -0.02    +0.136 C  
DOCKED: ATOM     13  C   UNL     1      13.151  21.825  19.146 -0.11 -0.02    +0.179 C  
DOCKED: ATOM     14  O   UNL     1      14.508  21.760  18.675 -0.12 +0.05    -0.377 OA 
DOCKED: ATOM     15  C   UNL     1      14.599  22.270  17.328 -0.28 -0.03    +0.179 C  
DOCKED: ATOM     16  C   UNL     1      13.714  21.445  16.380 -0.25 -0.02    +0.136 C  
DOCKED: ENDBRANCH   8   9
DOCKED: ENDBRANCH   1   8
DOCKED: BRANCH   4  17
DOCKED: ATOM     17  N   UNL     1      10.908  27.364  17.765 -0.15 +0.12    -0.178 NA 
DOCKED: ATOM     18  H   UNL     1      10.113  27.994  17.888 -0.28 -0.30    +0.149 HD 
DOCKED: BRANCH  17  19
DOCKED: ATOM     19  S   UNL     1      12.290  28.128  18.422 -0.20 -0.01    +0.059 S  
DOCKED: ATOM     20  O   UNL     1      12.552  29.254  17.547 -0.33 -0.05    -0.153 OA 
DOCKED: ATOM     21  O   UNL     1      12.035  28.328  19.841 -0.04 +0.04    -0.153 OA 
DOCKED: BRANCH  19  22
DOCKED: ATOM     22  C   UNL     1      13.613  26.977  18.208 -0.12 +0.01    +0.106 A  
DOCKED: ATOM     23  C   UNL     1      13.753  25.926  19.114 -0.07 -0.00    +0.029 A  
DOCKED: ATOM     24  C   UNL     1      14.887  25.113  19.048 -0.07 -0.00    +0.010 A  
DOCKED: ATOM     25  C   UNL     1      15.898  25.360  18.099 -0.13 +0.00    -0.016 A  
DOCKED: ATOM     26  C   UNL     1      17.074  24.595  18.067 -0.17 -0.00    +0.028 A  
DOCKED: ATOM     27  C   UNL     1      18.083  24.887  17.148 -0.24 -0.01    +0.042 A  
DOCKED: ATOM     28 CL   UNL     1      19.514  23.929  17.120 -0.33 +0.02    -0.084 Cl 
DOCKED: ATOM     29  C   UNL     1      17.945  25.945  16.257 -0.28 +0.00    +0.020 A  
DOCKED: ATOM     30  C   UNL     1      16.778  26.709  16.270 -0.30 +0.00    +0.010 A  
DOCKED: ATOM     31  C   UNL     1      15.739  26.416  17.171 -0.19 -0.00    -0.016 A  
DOCKED: ATOM     32  C   UNL     1      14.568  27.186  17.202 +0.01 +0.01    +0.037 A  
DOCKED: ENDBRANCH  19  22
DOCKED: ENDBRANCH  17  19
DOCKED: ENDBRANCH   4  17
DOCKED: TORSDOF 5
DOCKED: TER
DOCKED: ENDMDL
________________________________________________________________________________


    FINAL DOCKED STATE:
    ________________________


Run:   9 / 50
Time taken for this run:   0.000s

DOCKED: MODEL        9
DOCKED: USER    Run = 9
DOCKED: USER
DOCKED: USER    Estimated Free Energy of Binding    =  -4.68 kcal/mol  [=(1)+(2)+(3)-(4)]
DOCKED: USER
DOCKED: USER    (1) Final Intermolecular Energy     =  -6.17 kcal/mol
DOCKED: USER        vdW + Hbond + desolv Energy     =  -6.09 kcal/mol
DOCKED: USER        Electrostatic Energy            =  -0.08 kcal/mol
DOCKED: USER        Moving Ligand-Fixed Receptor    =  -6.17 kcal/mol
DOCKED: USER        Moving Ligand-Moving Receptor   =  +0.00 kcal/mol
DOCKED: USER    (2) Final Total Internal Energy     =  -2.77 kcal/mol
DOCKED: USER    (3) Torsional Free Energy           =  +1.49 kcal/mol
DOCKED: USER    (4) Unbound System's Energy         =  -2.77 kcal/mol
DOCKED: USER
DOCKED: USER
DOCKED: REMARK  Name = 
DOCKED: REMARK  6 active torsions:
DOCKED: REMARK  status: ('A' for Active; 'I' for Inactive)
DOCKED: REMARK    1  A    between atoms: C_1  and  C_2
DOCKED: REMARK    2  A    between atoms: C_2  and  C_3
DOCKED: REMARK    3  A    between atoms: C_2  and  N_11
DOCKED: REMARK    4  A    between atoms: C_14  and  N_15
DOCKED: REMARK    5  A    between atoms: N_15  and  S_16
DOCKED: REMARK    6  A    between atoms: S_16  and  C_19
DOCKED: REMARK                            x       y       z     vdW  Elec       q    Type
DOCKED: REMARK                         _______ _______ _______ _____ _____    ______ ____
DOCKED: USER                              x       y       z     vdW  Elec       q    Type
DOCKED: USER                           _______ _______ _______ _____ _____    ______ ____
DOCKED: ROOT
DOCKED: ATOM      1  N   UNL     1       7.330  20.046  17.297 -0.07 +0.05    -0.289 N  
DOCKED: ATOM      2  C   UNL     1       6.326  21.083  17.371 -0.11 -0.03    +0.110 C  
DOCKED: ATOM      3  C   UNL     1       6.772  22.110  16.323 -0.27 -0.02    +0.049 C  
DOCKED: ATOM      4  C   UNL     1       8.284  21.905  16.268 -0.26 -0.04    +0.164 C  
DOCKED: ATOM      5  C   UNL     1       8.317  20.406  16.400 -0.21 -0.04    +0.235 C  
DOCKED: ATOM      6  O   UNL     1       9.056  19.612  15.859 -0.29 +0.04    -0.274 OA 
DOCKED: ENDROOT
DOCKED: BRANCH   1   8
DOCKED: ATOM      7  C   UNL     1       6.623  17.853  16.416 -0.25 -0.00    +0.038 C  
DOCKED: ATOM      8  C   UNL     1       7.103  18.640  17.645 -0.14 -0.02    +0.159 C  
DOCKED: BRANCH   8   9
DOCKED: ATOM      9  C   UNL     1       8.392  17.991  18.269 -0.12 -0.02    +0.236 C  
DOCKED: ATOM     10  O   UNL     1       8.767  16.872  17.903 -0.14 +0.01    -0.274 OA 
DOCKED: ATOM     11  N   UNL     1       9.054  18.635  19.314 -0.04 +0.04    -0.296 N  
DOCKED: ATOM     12  C   UNL     1       8.677  19.884  19.976 -0.03 -0.02    +0.136 C  
DOCKED: ATOM     13  C   UNL     1       9.675  20.987  19.604 -0.03 -0.03    +0.179 C  
DOCKED: ATOM     14  O   UNL     1      11.015  20.600  19.947 -0.03 +0.06    -0.377 OA 
DOCKED: ATOM     15  C   UNL     1      11.384  19.390  19.252 -0.05 -0.02    +0.179 C  
DOCKED: ATOM     16  C   UNL     1      10.433  18.243  19.630 -0.12 -0.02    +0.136 C  
DOCKED: ENDBRANCH   8   9
DOCKED: ENDBRANCH   1   8
DOCKED: BRANCH   4  17
DOCKED: ATOM     17  N   UNL     1       8.946  22.501  15.104 -0.23 +0.04    -0.178 NA 
DOCKED: ATOM     18  H   UNL     1       8.347  22.775  14.324 -0.39 -0.08    +0.149 HD 
DOCKED: BRANCH  17  19
DOCKED: ATOM     19  S   UNL     1       9.990  23.811  15.450 -0.52 -0.01    +0.059 S  
DOCKED: ATOM     20  O   UNL     1      10.410  24.312  14.155 -0.44 -0.02    -0.153 OA 
DOCKED: ATOM     21  O   UNL     1       9.298  24.674  16.395 -0.17 +0.07    -0.153 OA 
DOCKED: BRANCH  19  22
DOCKED: ATOM     22  C   UNL     1      11.409  23.095  16.221 -0.25 +0.00    +0.106 A  
DOCKED: ATOM     23  C   UNL     1      12.051  22.024  15.602 -0.34 +0.00    +0.029 A  
DOCKED: ATOM     24  C   UNL     1      13.068  21.350  16.283 -0.34 -0.00    +0.010 A  
DOCKED: ATOM     25  C   UNL     1      13.430  21.722  17.592 -0.29 +0.00    -0.016 A  
DOCKED: ATOM     26  C   UNL     1      14.400  21.010  18.314 -0.19 -0.00    +0.028 A  
DOCKED: ATOM     27  C   UNL     1      14.710  21.368  19.626 -0.16 -0.00    +0.042 A  
DOCKED: ATOM     28 CL   UNL     1      15.911  20.486  20.490 -0.19 -0.00    -0.084 Cl 
DOCKED: ATOM     29  C   UNL     1      14.056  22.428  20.245 -0.06 -0.00    +0.020 A  
DOCKED: ATOM     30  C   UNL     1      13.096  23.152  19.537 -0.06 -0.00    +0.010 A  
DOCKED: ATOM     31  C   UNL     1      12.787  22.823  18.206 -0.15 +0.00    -0.016 A  
DOCKED: ATOM     32  C   UNL     1      11.813  23.535  17.491 -0.17 -0.00    +0.037 A  
DOCKED: ENDBRANCH  19  22
DOCKED: ENDBRANCH  17  19
DOCKED: ENDBRANCH   4  17
DOCKED: TORSDOF 5
DOCKED: TER
DOCKED: ENDMDL
________________________________________________________________________________


    FINAL DOCKED STATE:
    ________________________


Run:   10 / 50
Time taken for this run:   0.000s

DOCKED: MODEL        10
DOCKED: USER    Run = 10
DOCKED: USER
DOCKED: USER    Estimated Free Energy of Binding    =  -4.66 kcal/mol  [=(1)+(2)+(3)-(4)]
DOCKED: USER
DOCKED: USER    (1) Final Intermolecular Energy     =  -6.15 kcal/mol
DOCKED: USER        vdW + Hbond + desolv Energy     =  -5.98 kcal/mol
DOCKED: USER        Electrostatic Energy            =  -0.17 kcal/mol
DOCKED: USER        Moving Ligand-Fixed Receptor    =  -6.15 kcal/mol
DOCKED: USER        Moving Ligand-Moving Receptor   =  +0.00 kcal/mol
DOCKED: USER    (2) Final Total Internal Energy     =  -3.03 kcal/mol
DOCKED: USER    (3) Torsional Free Energy           =  +1.49 kcal/mol
DOCKED: USER    (4) Unbound System's Energy         =  -3.03 kcal/mol
DOCKED: USER
DOCKED: USER
DOCKED: REMARK  Name = 
DOCKED: REMARK  6 active torsions:
DOCKED: REMARK  status: ('A' for Active; 'I' for Inactive)
DOCKED: REMARK    1  A    between atoms: C_1  and  C_2
DOCKED: REMARK    2  A    between atoms: C_2  and  C_3
DOCKED: REMARK    3  A    between atoms: C_2  and  N_11
DOCKED: REMARK    4  A    between atoms: C_14  and  N_15
DOCKED: REMARK    5  A    between atoms: N_15  and  S_16
DOCKED: REMARK    6  A    between atoms: S_16  and  C_19
DOCKED: REMARK                            x       y       z     vdW  Elec       q    Type
DOCKED: REMARK                         _______ _______ _______ _____ _____    ______ ____
DOCKED: USER                              x       y       z     vdW  Elec       q    Type
DOCKED: USER                           _______ _______ _______ _____ _____    ______ ____
DOCKED: ROOT
DOCKED: ATOM      1  N   UNL     1       8.574  23.728  17.622 -0.10 +0.13    -0.289 N  
DOCKED: ATOM      2  C   UNL     1       8.421  22.744  18.670 -0.06 -0.03    +0.110 C  
DOCKED: ATOM      3  C   UNL     1       8.598  21.401  17.951 -0.10 -0.01    +0.049 C  
DOCKED: ATOM      4  C   UNL     1       8.148  21.717  16.526 -0.22 -0.04    +0.164 C  
DOCKED: ATOM      5  C   UNL     1       8.733  23.099  16.402 -0.22 -0.08    +0.235 C  
DOCKED: ATOM      6  O   UNL     1       9.245  23.623  15.437 -0.30 +0.06    -0.274 OA 
DOCKED: ENDROOT
DOCKED: BRANCH   1   8
DOCKED: ATOM      7  C   UNL     1       8.865  25.511  19.300 -0.12 -0.03    +0.038 C  
DOCKED: ATOM      8  C   UNL     1       9.044  25.101  17.831 -0.08 -0.12    +0.159 C  
DOCKED: BRANCH   8   9
DOCKED: ATOM      9  C   UNL     1      10.538  25.269  17.371 -0.18 -0.08    +0.236 C  
DOCKED: ATOM     10  O   UNL     1      10.807  25.879  16.332 -0.50 -0.03    -0.274 OA 
DOCKED: ATOM     11  N   UNL     1      11.556  24.635  18.085 -0.07 +0.04    -0.296 N  
DOCKED: ATOM     12  C   UNL     1      11.422  23.756  19.246 -0.04 -0.03    +0.136 C  
DOCKED: ATOM     13  C   UNL     1      11.952  24.466  20.496 -0.01 -0.04    +0.179 C  
DOCKED: ATOM     14  O   UNL     1      13.317  24.877  20.309 +0.00 +0.06    -0.377 OA 
DOCKED: ATOM     15  C   UNL     1      13.424  25.776  19.186 -0.05 -0.02    +0.179 C  
DOCKED: ATOM     16  C   UNL     1      12.941  25.088  17.899 -0.15 +0.00    +0.136 C  
DOCKED: ENDBRANCH   8   9
DOCKED: ENDBRANCH   1   8
DOCKED: BRANCH   4  17
DOCKED: ATOM     17  N   UNL     1       8.535  20.723  15.521 -0.25 +0.03    -0.178 NA 
DOCKED: ATOM     18  H   UNL     1       8.808  21.079  14.603 +0.06 -0.02    +0.149 HD 
DOCKED: BRANCH  17  19
DOCKED: ATOM     19  S   UNL     1       9.725  19.601  16.024 -0.51 -0.01    +0.059 S  
DOCKED: ATOM     20  O   UNL     1       9.169  18.961  17.200 -0.21 +0.02    -0.153 OA 
DOCKED: ATOM     21  O   UNL     1      10.100  18.820  14.855 -0.42 +0.03    -0.153 OA 
DOCKED: BRANCH  19  22
DOCKED: ATOM     22  C   UNL     1      11.099  20.577  16.557 -0.25 -0.01    +0.106 A  
DOCKED: ATOM     23  C   UNL     1      11.751  21.394  15.634 -0.37 -0.00    +0.029 A  
DOCKED: ATOM     24  C   UNL     1      12.933  22.037  16.008 -0.23 +0.00    +0.010 A  
DOCKED: ATOM     25  C   UNL     1      13.485  21.849  17.289 -0.31 +0.00    -0.016 A  
DOCKED: ATOM     26  C   UNL     1      14.708  22.433  17.653 -0.30 -0.00    +0.028 A  
DOCKED: ATOM     27  C   UNL     1      15.258  22.195  18.913 -0.18 -0.00    +0.042 A  
DOCKED: ATOM     28 CL   UNL     1      16.755  22.931  19.342 -0.19 +0.01    -0.084 Cl 
DOCKED: ATOM     29  C   UNL     1      14.611  21.367  19.824 -0.15 -0.00    +0.020 A  
DOCKED: ATOM     30  C   UNL     1      13.390  20.786  19.480 -0.15 -0.00    +0.010 A  
DOCKED: ATOM     31  C   UNL     1      12.806  21.034  18.227 -0.17 +0.00    -0.016 A  
DOCKED: ATOM     32  C   UNL     1      11.587  20.444  17.865 -0.14 -0.01    +0.037 A  
DOCKED: ENDBRANCH  19  22
DOCKED: ENDBRANCH  17  19
DOCKED: ENDBRANCH   4  17
DOCKED: TORSDOF 5
DOCKED: TER
DOCKED: ENDMDL
________________________________________________________________________________


    FINAL DOCKED STATE:
    ________________________


Run:   11 / 50
Time taken for this run:   0.000s

DOCKED: MODEL        11
DOCKED: USER    Run = 11
DOCKED: USER
DOCKED: USER    Estimated Free Energy of Binding    =  -5.31 kcal/mol  [=(1)+(2)+(3)-(4)]
DOCKED: USER
DOCKED: USER    (1) Final Intermolecular Energy     =  -6.80 kcal/mol
DOCKED: USER        vdW + Hbond + desolv Energy     =  -6.84 kcal/mol
DOCKED: USER        Electrostatic Energy            =  +0.04 kcal/mol
DOCKED: USER        Moving Ligand-Fixed Receptor    =  -6.80 kcal/mol
DOCKED: USER        Moving Ligand-Moving Receptor   =  +0.00 kcal/mol
DOCKED: USER    (2) Final Total Internal Energy     =  -1.92 kcal/mol
DOCKED: USER    (3) Torsional Free Energy           =  +1.49 kcal/mol
DOCKED: USER    (4) Unbound System's Energy         =  -1.92 kcal/mol
DOCKED: USER
DOCKED: USER
DOCKED: REMARK  Name = 
DOCKED: REMARK  6 active torsions:
DOCKED: REMARK  status: ('A' for Active; 'I' for Inactive)
DOCKED: REMARK    1  A    between atoms: C_1  and  C_2
DOCKED: REMARK    2  A    between atoms: C_2  and  C_3
DOCKED: REMARK    3  A    between atoms: C_2  and  N_11
DOCKED: REMARK    4  A    between atoms: C_14  and  N_15
DOCKED: REMARK    5  A    between atoms: N_15  and  S_16
DOCKED: REMARK    6  A    between atoms: S_16  and  C_19
DOCKED: REMARK                            x       y       z     vdW  Elec       q    Type
DOCKED: REMARK                         _______ _______ _______ _____ _____    ______ ____
DOCKED: USER                              x       y       z     vdW  Elec       q    Type
DOCKED: USER                           _______ _______ _______ _____ _____    ______ ____
DOCKED: ROOT
DOCKED: ATOM      1  N   UNL     1      11.478  20.839  16.811 -0.14 +0.04    -0.289 N  
DOCKED: ATOM      2  C   UNL     1      11.437  21.275  18.189 -0.14 -0.02    +0.110 C  
DOCKED: ATOM      3  C   UNL     1      12.756  22.035  18.379 -0.18 -0.01    +0.049 C  
DOCKED: ATOM      4  C   UNL     1      13.677  21.376  17.355 -0.22 -0.03    +0.164 C  
DOCKED: ATOM      5  C   UNL     1      12.685  21.190  16.238 -0.24 -0.02    +0.235 C  
DOCKED: ATOM      6  O   UNL     1      12.856  21.299  15.044 -0.38 +0.01    -0.274 OA 
DOCKED: ENDROOT
DOCKED: BRANCH   1   8
DOCKED: ATOM      7  C   UNL     1       9.832  19.129  16.141 -0.40 -0.01    +0.038 C  
DOCKED: ATOM      8  C   UNL     1      10.294  20.585  15.983 -0.30 -0.02    +0.159 C  
DOCKED: BRANCH   8   9
DOCKED: ATOM      9  C   UNL     1       9.134  21.590  16.322 -0.21 -0.05    +0.236 C  
DOCKED: ATOM     10  O   UNL     1       8.052  21.174  16.746 -0.13 +0.06    -0.274 OA 
DOCKED: ATOM     11  N   UNL     1       9.293  22.948  16.043 -0.19 +0.07    -0.296 N  
DOCKED: ATOM     12  C   UNL     1      10.437  23.604  15.409 -0.38 -0.00    +0.136 C  
DOCKED: ATOM     13  C   UNL     1      11.184  24.452  16.444 -0.20 +0.01    +0.179 C  
DOCKED: ATOM     14  O   UNL     1      10.303  25.413  17.049 -0.20 +0.14    -0.377 OA 
DOCKED: ATOM     15  C   UNL     1       9.204  24.746  17.705 -0.15 -0.11    +0.179 C  
DOCKED: ATOM     16  C   UNL     1       8.399  23.916  16.692 -0.21 -0.07    +0.136 C  
DOCKED: ENDBRANCH   8   9
DOCKED: ENDBRANCH   1   8
DOCKED: BRANCH   4  17
DOCKED: ATOM     17  N   UNL     1      14.904  22.122  17.057 -0.28 +0.04    -0.178 NA 
DOCKED: ATOM     18  H   UNL     1      15.110  22.293  16.072 -0.09 -0.01    +0.149 HD 
DOCKED: BRANCH  17  19
DOCKED: ATOM     19  S   UNL     1      15.078  23.603  17.895 -0.31 -0.00    +0.059 S  
DOCKED: ATOM     20  O   UNL     1      13.925  24.393  17.510 -0.17 -0.01    -0.153 OA 
DOCKED: ATOM     21  O   UNL     1      15.330  23.280  19.291 -0.09 +0.02    -0.153 OA 
DOCKED: BRANCH  19  22
DOCKED: ATOM     22  C   UNL     1      16.503  24.378  17.193 -0.23 -0.00    +0.106 A  
DOCKED: ATOM     23  C   UNL     1      17.733  23.726  17.260 -0.26 -0.00    +0.029 A  
DOCKED: ATOM     24  C   UNL     1      18.887  24.402  16.857 -0.24 -0.00    +0.010 A  
DOCKED: ATOM     25  C   UNL     1      18.825  25.737  16.414 -0.24 +0.00    -0.016 A  
DOCKED: ATOM     26  C   UNL     1      19.985  26.450  16.073 -0.17 -0.00    +0.028 A  
DOCKED: ATOM     27  C   UNL     1      19.904  27.786  15.679 -0.13 -0.00    +0.042 A  
DOCKED: ATOM     28 CL   UNL     1      21.339  28.639  15.256 -0.11 +0.02    -0.084 Cl 
DOCKED: ATOM     29  C   UNL     1      18.676  28.437  15.629 -0.15 -0.00    +0.020 A  
DOCKED: ATOM     30  C   UNL     1      17.513  27.738  15.955 -0.23 +0.00    +0.010 A  
DOCKED: ATOM     31  C   UNL     1      17.570  26.385  16.330 -0.28 -0.00    -0.016 A  
DOCKED: ATOM     32  C   UNL     1      16.409  25.678  16.674 -0.19 +0.00    +0.037 A  
DOCKED: ENDBRANCH  19  22
DOCKED: ENDBRANCH  17  19
DOCKED: ENDBRANCH   4  17
DOCKED: TORSDOF 5
DOCKED: TER
DOCKED: ENDMDL
________________________________________________________________________________


    FINAL DOCKED STATE:
    ________________________


Run:   12 / 50
Time taken for this run:   0.000s

DOCKED: MODEL        12
DOCKED: USER    Run = 12
DOCKED: USER
DOCKED: USER    Estimated Free Energy of Binding    =  -5.41 kcal/mol  [=(1)+(2)+(3)-(4)]
DOCKED: USER
DOCKED: USER    (1) Final Intermolecular Energy     =  -6.90 kcal/mol
DOCKED: USER        vdW + Hbond + desolv Energy     =  -6.95 kcal/mol
DOCKED: USER        Electrostatic Energy            =  +0.05 kcal/mol
DOCKED: USER        Moving Ligand-Fixed Receptor    =  -6.90 kcal/mol
DOCKED: USER        Moving Ligand-Moving Receptor   =  +0.00 kcal/mol
DOCKED: USER    (2) Final Total Internal Energy     =  -1.88 kcal/mol
DOCKED: USER    (3) Torsional Free Energy           =  +1.49 kcal/mol
DOCKED: USER    (4) Unbound System's Energy         =  -1.88 kcal/mol
DOCKED: USER
DOCKED: USER
DOCKED: REMARK  Name = 
DOCKED: REMARK  6 active torsions:
DOCKED: REMARK  status: ('A' for Active; 'I' for Inactive)
DOCKED: REMARK    1  A    between atoms: C_1  and  C_2
DOCKED: REMARK    2  A    between atoms: C_2  and  C_3
DOCKED: REMARK    3  A    between atoms: C_2  and  N_11
DOCKED: REMARK    4  A    between atoms: C_14  and  N_15
DOCKED: REMARK    5  A    between atoms: N_15  and  S_16
DOCKED: REMARK    6  A    between atoms: S_16  and  C_19
DOCKED: REMARK                            x       y       z     vdW  Elec       q    Type
DOCKED: REMARK                         _______ _______ _______ _____ _____    ______ ____
DOCKED: USER                              x       y       z     vdW  Elec       q    Type
DOCKED: USER                           _______ _______ _______ _____ _____    ______ ____
DOCKED: ROOT
DOCKED: ATOM      1  N   UNL     1      11.514  20.893  16.690 -0.15 +0.04    -0.289 N  
DOCKED: ATOM      2  C   UNL     1      11.406  21.336  18.062 -0.15 -0.02    +0.110 C  
DOCKED: ATOM      3  C   UNL     1      12.735  22.054  18.329 -0.18 -0.01    +0.049 C  
DOCKED: ATOM      4  C   UNL     1      13.694  21.361  17.363 -0.21 -0.03    +0.164 C  
DOCKED: ATOM      5  C   UNL     1      12.764  21.202  16.190 -0.23 -0.02    +0.235 C  
DOCKED: ATOM      6  O   UNL     1      13.010  21.300  15.007 -0.37 +0.01    -0.274 OA 
DOCKED: ENDROOT
DOCKED: BRANCH   1   8
DOCKED: ATOM      7  C   UNL     1       9.953  19.196  15.815 -0.43 -0.01    +0.038 C  
DOCKED: ATOM      8  C   UNL     1      10.375  20.673  15.794 -0.25 -0.02    +0.159 C  
DOCKED: BRANCH   8   9
DOCKED: ATOM      9  C   UNL     1       9.171  21.615  16.160 -0.23 -0.04    +0.236 C  
DOCKED: ATOM     10  O   UNL     1       8.097  21.137  16.539 -0.16 +0.06    -0.274 OA 
DOCKED: ATOM     11  N   UNL     1       9.282  22.990  15.956 -0.20 +0.07    -0.296 N  
DOCKED: ATOM     12  C   UNL     1      10.412  23.721  15.382 -0.38 -0.00    +0.136 C  
DOCKED: ATOM     13  C   UNL     1      11.106  24.541  16.475 -0.21 +0.01    +0.179 C  
DOCKED: ATOM     14  O   UNL     1      10.177  25.435  17.111 -0.18 +0.17    -0.377 OA 
DOCKED: ATOM     15  C   UNL     1       9.092  24.693  17.708 -0.14 -0.11    +0.179 C  
DOCKED: ATOM     16  C   UNL     1       8.339  23.888  16.637 -0.20 -0.07    +0.136 C  
DOCKED: ENDBRANCH   8   9
DOCKED: ENDBRANCH   1   8
DOCKED: BRANCH   4  17
DOCKED: ATOM     17  N   UNL     1      14.960  22.066  17.137 -0.29 +0.04    -0.178 NA 
DOCKED: ATOM     18  H   UNL     1      15.256  22.178  16.167 -0.19 -0.03    +0.149 HD 
DOCKED: BRANCH  17  19
DOCKED: ATOM     19  S   UNL     1      15.095  23.587  17.907 -0.31 -0.00    +0.059 S  
DOCKED: ATOM     20  O   UNL     1      13.928  24.333  17.478 -0.16 -0.01    -0.153 OA 
DOCKED: ATOM     21  O   UNL     1      15.342  23.334  19.318 -0.09 +0.02    -0.153 OA 
DOCKED: BRANCH  19  22
DOCKED: ATOM     22  C   UNL     1      16.508  24.361  17.181 -0.23 -0.00    +0.106 A  
DOCKED: ATOM     23  C   UNL     1      17.732  23.694  17.201 -0.26 -0.00    +0.029 A  
DOCKED: ATOM     24  C   UNL     1      18.882  24.366  16.778 -0.23 -0.00    +0.010 A  
DOCKED: ATOM     25  C   UNL     1      18.823  25.709  16.362 -0.24 +0.00    -0.016 A  
DOCKED: ATOM     26  C   UNL     1      19.981  26.416  16.003 -0.18 -0.00    +0.028 A  
DOCKED: ATOM     27  C   UNL     1      19.903  27.761  15.637 -0.13 -0.00    +0.042 A  
DOCKED: ATOM     28 CL   UNL     1      21.336  28.607  15.190 -0.12 +0.02    -0.084 Cl 
DOCKED: ATOM     29  C   UNL     1      18.682  28.425  15.634 -0.15 -0.00    +0.020 A  
DOCKED: ATOM     30  C   UNL     1      17.521  27.733  15.980 -0.23 +0.00    +0.010 A  
DOCKED: ATOM     31  C   UNL     1      17.574  26.373  16.326 -0.28 -0.00    -0.016 A  
DOCKED: ATOM     32  C   UNL     1      16.415  25.671  16.689 -0.20 +0.00    +0.037 A  
DOCKED: ENDBRANCH  19  22
DOCKED: ENDBRANCH  17  19
DOCKED: ENDBRANCH   4  17
DOCKED: TORSDOF 5
DOCKED: TER
DOCKED: ENDMDL
________________________________________________________________________________


    FINAL DOCKED STATE:
    ________________________


Run:   13 / 50
Time taken for this run:   0.000s

DOCKED: MODEL        13
DOCKED: USER    Run = 13
DOCKED: USER
DOCKED: USER    Estimated Free Energy of Binding    =  -4.94 kcal/mol  [=(1)+(2)+(3)-(4)]
DOCKED: USER
DOCKED: USER    (1) Final Intermolecular Energy     =  -6.43 kcal/mol
DOCKED: USER        vdW + Hbond + desolv Energy     =  -6.40 kcal/mol
DOCKED: USER        Electrostatic Energy            =  -0.03 kcal/mol
DOCKED: USER        Moving Ligand-Fixed Receptor    =  -6.43 kcal/mol
DOCKED: USER        Moving Ligand-Moving Receptor   =  +0.00 kcal/mol
DOCKED: USER    (2) Final Total Internal Energy     =  -2.07 kcal/mol
DOCKED: USER    (3) Torsional Free Energy           =  +1.49 kcal/mol
DOCKED: USER    (4) Unbound System's Energy         =  -2.07 kcal/mol
DOCKED: USER
DOCKED: USER
DOCKED: REMARK  Name = 
DOCKED: REMARK  6 active torsions:
DOCKED: REMARK  status: ('A' for Active; 'I' for Inactive)
DOCKED: REMARK    1  A    between atoms: C_1  and  C_2
DOCKED: REMARK    2  A    between atoms: C_2  and  C_3
DOCKED: REMARK    3  A    between atoms: C_2  and  N_11
DOCKED: REMARK    4  A    between atoms: C_14  and  N_15
DOCKED: REMARK    5  A    between atoms: N_15  and  S_16
DOCKED: REMARK    6  A    between atoms: S_16  and  C_19
DOCKED: REMARK                            x       y       z     vdW  Elec       q    Type
DOCKED: REMARK                         _______ _______ _______ _____ _____    ______ ____
DOCKED: USER                              x       y       z     vdW  Elec       q    Type
DOCKED: USER                           _______ _______ _______ _____ _____    ______ ____
DOCKED: ROOT
DOCKED: ATOM      1  N   UNL     1      11.725  22.825  16.534 -0.15 +0.00    -0.289 N  
DOCKED: ATOM      2  C   UNL     1      12.120  22.054  15.376 -0.26 +0.01    +0.110 C  
DOCKED: ATOM      3  C   UNL     1      13.159  21.066  15.923 -0.22 -0.01    +0.049 C  
DOCKED: ATOM      4  C   UNL     1      13.738  21.813  17.122 -0.30 -0.02    +0.164 C  
DOCKED: ATOM      5  C   UNL     1      12.471  22.446  17.633 -0.15 -0.02    +0.235 C  
DOCKED: ATOM      6  O   UNL     1      12.122  22.630  18.778 -0.04 +0.04    -0.274 OA 
DOCKED: ENDROOT
DOCKED: BRANCH   1   8
DOCKED: ATOM      7  C   UNL     1      10.426  24.856  16.013 -0.21 -0.00    +0.038 C  
DOCKED: ATOM      8  C   UNL     1      10.422  23.479  16.694 -0.23 -0.02    +0.159 C  
DOCKED: BRANCH   8   9
DOCKED: ATOM      9  C   UNL     1       9.259  22.575  16.144 -0.24 -0.05    +0.236 C  
DOCKED: ATOM     10  O   UNL     1       8.540  22.975  15.224 -0.28 +0.09    -0.274 OA 
DOCKED: ATOM     11  N   UNL     1       8.973  21.361  16.769 -0.10 +0.06    -0.296 N  
DOCKED: ATOM     12  C   UNL     1       9.614  20.792  17.955 -0.11 -0.02    +0.136 C  
DOCKED: ATOM     13  C   UNL     1      10.458  19.577  17.553 -0.18 -0.03    +0.179 C  
DOCKED: ATOM     14  O   UNL     1       9.653  18.598  16.876 -0.16 +0.04    -0.377 OA 
DOCKED: ATOM     15  C   UNL     1       9.064  19.165  15.687 -0.23 -0.02    +0.179 C  
DOCKED: ATOM     16  C   UNL     1       8.172  20.363  16.048 -0.28 -0.02    +0.136 C  
DOCKED: ENDBRANCH   8   9
DOCKED: ENDBRANCH   1   8
DOCKED: BRANCH   4  17
DOCKED: ATOM     17  N   UNL     1      14.506  20.982  18.054 -0.19 +0.04    -0.178 NA 
DOCKED: ATOM     18  H   UNL     1      15.244  20.401  17.652 -0.15 -0.07    +0.149 HD 
DOCKED: BRANCH  17  19
DOCKED: ATOM     19  S   UNL     1      15.164  21.810  19.398 -0.22 -0.00    +0.059 S  
DOCKED: ATOM     20  O   UNL     1      14.067  21.941  20.337 -0.05 +0.02    -0.153 OA 
DOCKED: ATOM     21  O   UNL     1      16.388  21.118  19.772 -0.35 -0.03    -0.153 OA 
DOCKED: BRANCH  19  22
DOCKED: ATOM     22  C   UNL     1      15.549  23.432  18.812 -0.13 -0.01    +0.106 A  
DOCKED: ATOM     23  C   UNL     1      14.617  24.455  18.984 -0.08 -0.00    +0.029 A  
DOCKED: ATOM     24  C   UNL     1      14.845  25.694  18.379 -0.12 -0.00    +0.010 A  
DOCKED: ATOM     25  C   UNL     1      15.983  25.910  17.580 -0.17 -0.00    -0.016 A  
DOCKED: ATOM     26  C   UNL     1      16.187  27.127  16.910 -0.20 +0.00    +0.028 A  
DOCKED: ATOM     27  C   UNL     1      17.300  27.302  16.086 -0.25 +0.01    +0.042 A  
DOCKED: ATOM     28 CL   UNL     1      17.536  28.806  15.281 -0.34 +0.00    -0.084 Cl 
DOCKED: ATOM     29  C   UNL     1      18.218  26.273  15.906 -0.23 +0.00    +0.020 A  
DOCKED: ATOM     30  C   UNL     1      18.033  25.061  16.572 -0.28 -0.00    +0.010 A  
DOCKED: ATOM     31  C   UNL     1      16.933  24.873  17.426 -0.24 +0.00    -0.016 A  
DOCKED: ATOM     32  C   UNL     1      16.731  23.654  18.090 -0.22 -0.00    +0.037 A  
DOCKED: ENDBRANCH  19  22
DOCKED: ENDBRANCH  17  19
DOCKED: ENDBRANCH   4  17
DOCKED: TORSDOF 5
DOCKED: TER
DOCKED: ENDMDL
________________________________________________________________________________


    FINAL DOCKED STATE:
    ________________________


Run:   14 / 50
Time taken for this run:   0.000s

DOCKED: MODEL        14
DOCKED: USER    Run = 14
DOCKED: USER
DOCKED: USER    Estimated Free Energy of Binding    =  -4.86 kcal/mol  [=(1)+(2)+(3)-(4)]
DOCKED: USER
DOCKED: USER    (1) Final Intermolecular Energy     =  -6.35 kcal/mol
DOCKED: USER        vdW + Hbond + desolv Energy     =  -6.32 kcal/mol
DOCKED: USER        Electrostatic Energy            =  -0.03 kcal/mol
DOCKED: USER        Moving Ligand-Fixed Receptor    =  -6.35 kcal/mol
DOCKED: USER        Moving Ligand-Moving Receptor   =  +0.00 kcal/mol
DOCKED: USER    (2) Final Total Internal Energy     =  -2.24 kcal/mol
DOCKED: USER    (3) Torsional Free Energy           =  +1.49 kcal/mol
DOCKED: USER    (4) Unbound System's Energy         =  -2.24 kcal/mol
DOCKED: USER
DOCKED: USER
DOCKED: REMARK  Name = 
DOCKED: REMARK  6 active torsions:
DOCKED: REMARK  status: ('A' for Active; 'I' for Inactive)
DOCKED: REMARK    1  A    between atoms: C_1  and  C_2
DOCKED: REMARK    2  A    between atoms: C_2  and  C_3
DOCKED: REMARK    3  A    between atoms: C_2  and  N_11
DOCKED: REMARK    4  A    between atoms: C_14  and  N_15
DOCKED: REMARK    5  A    between atoms: N_15  and  S_16
DOCKED: REMARK    6  A    between atoms: S_16  and  C_19
DOCKED: REMARK                            x       y       z     vdW  Elec       q    Type
DOCKED: REMARK                         _______ _______ _______ _____ _____    ______ ____
DOCKED: USER                              x       y       z     vdW  Elec       q    Type
DOCKED: USER                           _______ _______ _______ _____ _____    ______ ____
DOCKED: ROOT
DOCKED: ATOM      1  N   UNL     1      20.003  25.315  16.585 -0.11 +0.05    -0.289 N  
DOCKED: ATOM      2  C   UNL     1      18.898  24.494  17.027 -0.23 -0.02    +0.110 C  
DOCKED: ATOM      3  C   UNL     1      17.670  25.132  16.365 -0.33 -0.00    +0.049 C  
DOCKED: ATOM      4  C   UNL     1      18.092  26.590  16.202 -0.22 +0.01    +0.164 C  
DOCKED: ATOM      5  C   UNL     1      19.535  26.372  15.830 -0.13 -0.02    +0.235 C  
DOCKED: ATOM      6  O   UNL     1      20.215  26.985  15.036 -0.09 +0.02    -0.274 OA 
DOCKED: ENDROOT
DOCKED: BRANCH   1   8
DOCKED: ATOM      7  C   UNL     1      21.557  23.480  17.132 -0.19 -0.01    +0.038 C  
DOCKED: ATOM      8  C   UNL     1      21.387  24.849  16.457 -0.14 -0.03    +0.159 C  
DOCKED: BRANCH   8   9
DOCKED: ATOM      9  C   UNL     1      21.835  24.800  14.950 -0.20 -0.06    +0.236 C  
DOCKED: ATOM     10  O   UNL     1      21.301  24.010  14.166 -0.29 +0.11    -0.274 OA 
DOCKED: ATOM     11  N   UNL     1      22.912  25.578  14.524 -0.09 +0.07    -0.296 N  
DOCKED: ATOM     12  C   UNL     1      23.757  26.457  15.332 -0.05 -0.03    +0.136 C  
DOCKED: ATOM     13  C   UNL     1      23.471  27.919  14.976 -0.04 -0.04    +0.179 C  
DOCKED: ATOM     14  O   UNL     1      23.672  28.151  13.571 -0.04 +0.08    -0.377 OA 
DOCKED: ATOM     15  C   UNL     1      22.800  27.307  12.791 -0.10 -0.04    +0.179 C  
DOCKED: ATOM     16  C   UNL     1      23.084  25.825  13.086 -0.22 -0.04    +0.136 C  
DOCKED: ENDBRANCH   8   9
DOCKED: ENDBRANCH   1   8
DOCKED: BRANCH   4  17
DOCKED: ATOM     17  N   UNL     1      17.263  27.374  15.281 -0.64 -0.06    -0.178 NA 
DOCKED: ATOM     18  H   UNL     1      16.259  27.191  15.297 +0.03 +0.06    +0.149 HD 
DOCKED: BRANCH  17  19
DOCKED: ATOM     19  S   UNL     1      17.489  29.068  15.358 -0.30 -0.00    +0.059 S  
DOCKED: ATOM     20  O   UNL     1      16.239  29.638  14.893 -0.35 -0.01    -0.153 OA 
DOCKED: ATOM     21  O   UNL     1      18.001  29.373  16.685 -0.05 +0.02    -0.153 OA 
DOCKED: BRANCH  19  22
DOCKED: ATOM     22  C   UNL     1      18.718  29.437  14.143 -0.17 -0.04    +0.106 A  
DOCKED: ATOM     23  C   UNL     1      20.005  29.773  14.559 -0.10 -0.01    +0.029 A  
DOCKED: ATOM     24  C   UNL     1      20.932  30.224  13.616 -0.09 -0.00    +0.010 A  
DOCKED: ATOM     25  C   UNL     1      20.573  30.369  12.263 -0.15 +0.01    -0.016 A  
DOCKED: ATOM     26  C   UNL     1      21.473  30.888  11.318 -0.15 -0.01    +0.028 A  
DOCKED: ATOM     27  C   UNL     1      21.080  31.065   9.991 -0.25 -0.00    +0.042 A  
DOCKED: ATOM     28 CL   UNL     1      22.204  31.694   8.847 -0.39 -0.01    -0.084 Cl 
DOCKED: ATOM     29  C   UNL     1      19.790  30.744   9.584 -0.37 -0.00    +0.020 A  
DOCKED: ATOM     30  C   UNL     1      18.888  30.218  10.509 -0.43 -0.01    +0.010 A  
DOCKED: ATOM     31  C   UNL     1      19.271  30.007  11.845 -0.29 +0.01    -0.016 A  
DOCKED: ATOM     32  C   UNL     1      18.367  29.494  12.786 -0.16 -0.03    +0.037 A  
DOCKED: ENDBRANCH  19  22
DOCKED: ENDBRANCH  17  19
DOCKED: ENDBRANCH   4  17
DOCKED: TORSDOF 5
DOCKED: TER
DOCKED: ENDMDL
________________________________________________________________________________


    FINAL DOCKED STATE:
    ________________________


Run:   15 / 50
Time taken for this run:   0.000s

DOCKED: MODEL        15
DOCKED: USER    Run = 15
DOCKED: USER
DOCKED: USER    Estimated Free Energy of Binding    =  -4.77 kcal/mol  [=(1)+(2)+(3)-(4)]
DOCKED: USER
DOCKED: USER    (1) Final Intermolecular Energy     =  -6.27 kcal/mol
DOCKED: USER        vdW + Hbond + desolv Energy     =  -5.82 kcal/mol
DOCKED: USER        Electrostatic Energy            =  -0.44 kcal/mol
DOCKED: USER        Moving Ligand-Fixed Receptor    =  -6.27 kcal/mol
DOCKED: USER        Moving Ligand-Moving Receptor   =  +0.00 kcal/mol
DOCKED: USER    (2) Final Total Internal Energy     =  -2.38 kcal/mol
DOCKED: USER    (3) Torsional Free Energy           =  +1.49 kcal/mol
DOCKED: USER    (4) Unbound System's Energy         =  -2.38 kcal/mol
DOCKED: USER
DOCKED: USER
DOCKED: REMARK  Name = 
DOCKED: REMARK  6 active torsions:
DOCKED: REMARK  status: ('A' for Active; 'I' for Inactive)
DOCKED: REMARK    1  A    between atoms: C_1  and  C_2
DOCKED: REMARK    2  A    between atoms: C_2  and  C_3
DOCKED: REMARK    3  A    between atoms: C_2  and  N_11
DOCKED: REMARK    4  A    between atoms: C_14  and  N_15
DOCKED: REMARK    5  A    between atoms: N_15  and  S_16
DOCKED: REMARK    6  A    between atoms: S_16  and  C_19
DOCKED: REMARK                            x       y       z     vdW  Elec       q    Type
DOCKED: REMARK                         _______ _______ _______ _____ _____    ______ ____
DOCKED: USER                              x       y       z     vdW  Elec       q    Type
DOCKED: USER                           _______ _______ _______ _____ _____    ______ ____
DOCKED: ROOT
DOCKED: ATOM      1  N   UNL     1      10.201  23.813  17.603 -0.08 +0.08    -0.289 N  
DOCKED: ATOM      2  C   UNL     1       9.369  24.094  18.752 -0.09 -0.04    +0.110 C  
DOCKED: ATOM      3  C   UNL     1       9.401  25.623  18.871 -0.13 -0.04    +0.049 C  
DOCKED: ATOM      4  C   UNL     1      10.746  25.984  18.246 -0.16 -0.07    +0.164 C  
DOCKED: ATOM      5  C   UNL     1      10.753  24.983  17.121 -0.20 -0.04    +0.235 C  
DOCKED: ATOM      6  O   UNL     1      11.164  25.116  15.989 -0.22 -0.08    -0.274 OA 
DOCKED: ENDROOT
DOCKED: BRANCH   1   8
DOCKED: ATOM      7  C   UNL     1       8.989  22.872  15.672 -0.39 -0.01    +0.038 C  
DOCKED: ATOM      8  C   UNL     1      10.062  22.632  16.744 -0.20 -0.03    +0.159 C  
DOCKED: BRANCH   8   9
DOCKED: ATOM      9  C   UNL     1      11.438  22.236  16.094 -0.24 -0.01    +0.236 C  
DOCKED: ATOM     10  O   UNL     1      11.666  22.497  14.909 -0.22 -0.06    -0.274 OA 
DOCKED: ATOM     11  N   UNL     1      12.361  21.493  16.830 -0.17 +0.03    -0.296 N  
DOCKED: ATOM     12  C   UNL     1      12.210  20.968  18.187 -0.16 -0.02    +0.136 C  
DOCKED: ATOM     13  C   UNL     1      13.129  21.736  19.143 -0.11 -0.02    +0.179 C  
DOCKED: ATOM     14  O   UNL     1      14.496  21.663  18.706 -0.12 +0.05    -0.377 OA 
DOCKED: ATOM     15  C   UNL     1      14.634  22.224  17.383 -0.28 -0.03    +0.179 C  
DOCKED: ATOM     16  C   UNL     1      13.759  21.454  16.380 -0.25 -0.02    +0.136 C  
DOCKED: ENDBRANCH   8   9
DOCKED: ENDBRANCH   1   8
DOCKED: BRANCH   4  17
DOCKED: ATOM     17  N   UNL     1      10.906  27.399  17.898 -0.13 +0.12    -0.178 NA 
DOCKED: ATOM     18  H   UNL     1      10.108  28.010  18.080 -0.27 -0.27    +0.149 HD 
DOCKED: BRANCH  17  19
DOCKED: ATOM     19  S   UNL     1      12.301  28.154  18.538 -0.19 -0.01    +0.059 S  
DOCKED: ATOM     20  O   UNL     1      12.566  29.272  17.653 -0.32 -0.04    -0.153 OA 
DOCKED: ATOM     21  O   UNL     1      12.062  28.366  19.958 -0.03 +0.04    -0.153 OA 
DOCKED: BRANCH  19  22
DOCKED: ATOM     22  C   UNL     1      13.613  26.990  18.319 -0.12 +0.01    +0.106 A  
DOCKED: ATOM     23  C   UNL     1      13.779  25.971  19.255 -0.05 -0.00    +0.029 A  
DOCKED: ATOM     24  C   UNL     1      14.907  25.150  19.178 -0.06 -0.00    +0.010 A  
DOCKED: ATOM     25  C   UNL     1      15.886  25.359  18.188 -0.13 +0.00    -0.016 A  
DOCKED: ATOM     26  C   UNL     1      17.058  24.587  18.142 -0.17 -0.00    +0.028 A  
DOCKED: ATOM     27  C   UNL     1      18.035  24.842  17.180 -0.24 -0.01    +0.042 A  
DOCKED: ATOM     28 CL   UNL     1      19.461  23.877  17.136 -0.32 +0.02    -0.084 Cl 
DOCKED: ATOM     29  C   UNL     1      17.871  25.870  16.258 -0.29 +0.00    +0.020 A  
DOCKED: ATOM     30  C   UNL     1      16.708  26.639  16.284 -0.30 +0.00    +0.010 A  
DOCKED: ATOM     31  C   UNL     1      15.700  26.383  17.229 -0.19 -0.00    -0.016 A  
DOCKED: ATOM     32  C   UNL     1      14.533  27.159  17.274 -0.02 +0.01    +0.037 A  
DOCKED: ENDBRANCH  19  22
DOCKED: ENDBRANCH  17  19
DOCKED: ENDBRANCH   4  17
DOCKED: TORSDOF 5
DOCKED: TER
DOCKED: ENDMDL
________________________________________________________________________________


    FINAL DOCKED STATE:
    ________________________


Run:   16 / 50
Time taken for this run:   0.000s

DOCKED: MODEL        16
DOCKED: USER    Run = 16
DOCKED: USER
DOCKED: USER    Estimated Free Energy of Binding    =  -4.96 kcal/mol  [=(1)+(2)+(3)-(4)]
DOCKED: USER
DOCKED: USER    (1) Final Intermolecular Energy     =  -6.45 kcal/mol
DOCKED: USER        vdW + Hbond + desolv Energy     =  -6.41 kcal/mol
DOCKED: USER        Electrostatic Energy            =  -0.04 kcal/mol
DOCKED: USER        Moving Ligand-Fixed Receptor    =  -6.45 kcal/mol
DOCKED: USER        Moving Ligand-Moving Receptor   =  +0.00 kcal/mol
DOCKED: USER    (2) Final Total Internal Energy     =  -1.96 kcal/mol
DOCKED: USER    (3) Torsional Free Energy           =  +1.49 kcal/mol
DOCKED: USER    (4) Unbound System's Energy         =  -1.96 kcal/mol
DOCKED: USER
DOCKED: USER
DOCKED: REMARK  Name = 
DOCKED: REMARK  6 active torsions:
DOCKED: REMARK  status: ('A' for Active; 'I' for Inactive)
DOCKED: REMARK    1  A    between atoms: C_1  and  C_2
DOCKED: REMARK    2  A    between atoms: C_2  and  C_3
DOCKED: REMARK    3  A    between atoms: C_2  and  N_11
DOCKED: REMARK    4  A    between atoms: C_14  and  N_15
DOCKED: REMARK    5  A    between atoms: N_15  and  S_16
DOCKED: REMARK    6  A    between atoms: S_16  and  C_19
DOCKED: REMARK                            x       y       z     vdW  Elec       q    Type
DOCKED: REMARK                         _______ _______ _______ _____ _____    ______ ____
DOCKED: USER                              x       y       z     vdW  Elec       q    Type
DOCKED: USER                           _______ _______ _______ _____ _____    ______ ____
DOCKED: ROOT
DOCKED: ATOM      1  N   UNL     1       9.458  19.105  17.283 -0.14 +0.04    -0.289 N  
DOCKED: ATOM      2  C   UNL     1       9.940  18.327  18.403 -0.18 -0.01    +0.110 C  
DOCKED: ATOM      3  C   UNL     1       8.914  17.195  18.539 -0.20 -0.00    +0.049 C  
DOCKED: ATOM      4  C   UNL     1       7.642  17.819  17.970 -0.14 -0.01    +0.164 C  
DOCKED: ATOM      5  C   UNL     1       8.255  18.596  16.835 -0.12 -0.02    +0.235 C  
DOCKED: ATOM      6  O   UNL     1       7.818  18.786  15.721 -0.19 +0.02    -0.274 OA 
DOCKED: ENDROOT
DOCKED: BRANCH   1   8
DOCKED: ATOM      7  C   UNL     1      10.727  19.111  15.168 -0.50 -0.01    +0.038 C  
DOCKED: ATOM      8  C   UNL     1      10.308  19.917  16.407 -0.31 -0.02    +0.159 C  
DOCKED: BRANCH   8   9
DOCKED: ATOM      9  C   UNL     1       9.592  21.256  15.999 -0.23 -0.03    +0.236 C  
DOCKED: ATOM     10  O   UNL     1       8.365  21.292  15.866 -0.25 +0.06    -0.274 OA 
DOCKED: ATOM     11  N   UNL     1      10.356  22.380  15.682 -0.18 +0.02    -0.296 N  
DOCKED: ATOM     12  C   UNL     1      11.814  22.487  15.637 -0.30 +0.01    +0.136 C  
DOCKED: ATOM     13  C   UNL     1      12.304  23.356  16.801 -0.17 +0.01    +0.179 C  
DOCKED: ATOM     14  O   UNL     1      11.685  24.653  16.765 -0.15 -0.04    -0.377 OA 
DOCKED: ATOM     15  C   UNL     1      10.250  24.529  16.853 -0.23 -0.04    +0.179 C  
DOCKED: ATOM     16  C   UNL     1       9.710  23.699  15.677 -0.34 -0.02    +0.136 C  
DOCKED: ENDBRANCH   8   9
DOCKED: ENDBRANCH   1   8
DOCKED: BRANCH   4  17
DOCKED: ATOM     17  N   UNL     1       6.578  16.865  17.644 -0.15 +0.01    -0.178 NA 
DOCKED: ATOM     18  H   UNL     1       6.602  15.966  18.129 +0.04 -0.00    +0.149 HD 
DOCKED: BRANCH  17  19
DOCKED: ATOM     19  S   UNL     1       4.986  17.480  17.759 -0.19 -0.01    +0.059 S  
DOCKED: ATOM     20  O   UNL     1       4.233  16.773  16.741 -0.22 +0.01    -0.153 OA 
DOCKED: ATOM     21  O   UNL     1       4.598  17.409  19.159 -0.05 +0.01    -0.153 OA 
DOCKED: BRANCH  19  22
DOCKED: ATOM     22  C   UNL     1       5.094  19.170  17.253 -0.10 -0.01    +0.106 A  
DOCKED: ATOM     23  C   UNL     1       5.600  20.115  18.144 -0.05 -0.01    +0.029 A  
DOCKED: ATOM     24  C   UNL     1       5.535  21.470  17.812 -0.07 -0.00    +0.010 A  
DOCKED: ATOM     25  C   UNL     1       4.942  21.891  16.607 -0.15 +0.00    -0.016 A  
DOCKED: ATOM     26  C   UNL     1       4.807  23.253  16.293 -0.20 -0.01    +0.028 A  
DOCKED: ATOM     27  C   UNL     1       4.176  23.647  15.114 -0.29 -0.02    +0.042 A  
DOCKED: ATOM     28 CL   UNL     1       4.030  25.324  14.744 -0.51 +0.05    -0.084 Cl 
DOCKED: ATOM     29  C   UNL     1       3.659  22.701  14.235 -0.25 -0.01    +0.020 A  
DOCKED: ATOM     30  C   UNL     1       3.794  21.344  14.528 -0.32 -0.00    +0.010 A  
DOCKED: ATOM     31  C   UNL     1       4.450  20.925  15.698 -0.19 +0.00    -0.016 A  
DOCKED: ATOM     32  C   UNL     1       4.578  19.563  16.009 -0.08 -0.00    +0.037 A  
DOCKED: ENDBRANCH  19  22
DOCKED: ENDBRANCH  17  19
DOCKED: ENDBRANCH   4  17
DOCKED: TORSDOF 5
DOCKED: TER
DOCKED: ENDMDL
________________________________________________________________________________


    FINAL DOCKED STATE:
    ________________________


Run:   17 / 50
Time taken for this run:   0.000s

DOCKED: MODEL        17
DOCKED: USER    Run = 17
DOCKED: USER
DOCKED: USER    Estimated Free Energy of Binding    =  -5.64 kcal/mol  [=(1)+(2)+(3)-(4)]
DOCKED: USER
DOCKED: USER    (1) Final Intermolecular Energy     =  -7.13 kcal/mol
DOCKED: USER        vdW + Hbond + desolv Energy     =  -6.75 kcal/mol
DOCKED: USER        Electrostatic Energy            =  -0.37 kcal/mol
DOCKED: USER        Moving Ligand-Fixed Receptor    =  -7.13 kcal/mol
DOCKED: USER        Moving Ligand-Moving Receptor   =  +0.00 kcal/mol
DOCKED: USER    (2) Final Total Internal Energy     =  -1.50 kcal/mol
DOCKED: USER    (3) Torsional Free Energy           =  +1.49 kcal/mol
DOCKED: USER    (4) Unbound System's Energy         =  -1.50 kcal/mol
DOCKED: USER
DOCKED: USER
DOCKED: REMARK  Name = 
DOCKED: REMARK  6 active torsions:
DOCKED: REMARK  status: ('A' for Active; 'I' for Inactive)
DOCKED: REMARK    1  A    between atoms: C_1  and  C_2
DOCKED: REMARK    2  A    between atoms: C_2  and  C_3
DOCKED: REMARK    3  A    between atoms: C_2  and  N_11
DOCKED: REMARK    4  A    between atoms: C_14  and  N_15
DOCKED: REMARK    5  A    between atoms: N_15  and  S_16
DOCKED: REMARK    6  A    between atoms: S_16  and  C_19
DOCKED: REMARK                            x       y       z     vdW  Elec       q    Type
DOCKED: REMARK                         _______ _______ _______ _____ _____    ______ ____
DOCKED: USER                              x       y       z     vdW  Elec       q    Type
DOCKED: USER                           _______ _______ _______ _____ _____    ______ ____
DOCKED: ROOT
DOCKED: ATOM      1  N   UNL     1      19.548  32.263  11.089 -0.07 +0.14    -0.289 N  
DOCKED: ATOM      2  C   UNL     1      19.201  33.579  11.576 -0.07 -0.05    +0.110 C  
DOCKED: ATOM      3  C   UNL     1      17.923  33.937  10.807 -0.10 -0.04    +0.049 C  
DOCKED: ATOM      4  C   UNL     1      18.068  33.133   9.516 -0.10 -0.09    +0.164 C  
DOCKED: ATOM      5  C   UNL     1      18.673  31.881  10.092 -0.18 -0.15    +0.235 C  
DOCKED: ATOM      6  O   UNL     1      18.479  30.728   9.773 -0.30 +0.17    -0.274 OA 
DOCKED: ENDROOT
DOCKED: BRANCH   1   8
DOCKED: ATOM      7  C   UNL     1      19.378  30.140  12.333 -0.27 -0.02    +0.038 C  
DOCKED: ATOM      8  C   UNL     1      20.306  31.266  11.853 -0.12 -0.06    +0.159 C  
DOCKED: BRANCH   8   9
DOCKED: ATOM      9  C   UNL     1      21.506  30.695  11.013 -0.14 -0.05    +0.236 C  
DOCKED: ATOM     10  O   UNL     1      21.645  29.476  10.873 -0.17 +0.04    -0.274 OA 
DOCKED: ATOM     11  N   UNL     1      22.474  31.565  10.512 -0.08 +0.04    -0.296 N  
DOCKED: ATOM     12  C   UNL     1      22.559  33.013  10.698 -0.05 -0.02    +0.136 C  
DOCKED: ATOM     13  C   UNL     1      22.251  33.723   9.374 -0.07 +0.00    +0.179 C  
DOCKED: ATOM     14  O   UNL     1      23.142  33.278   8.338 -0.07 -0.03    -0.377 OA 
DOCKED: ATOM     15  C   UNL     1      23.014  31.855   8.139 -0.24 +0.02    +0.179 C  
DOCKED: ATOM     16  C   UNL     1      23.357  31.100   9.434 -0.25 -0.01    +0.136 C  
DOCKED: ENDBRANCH   8   9
DOCKED: ENDBRANCH   1   8
DOCKED: BRANCH   4  17
DOCKED: ATOM     17  N   UNL     1      16.837  32.996   8.732 -0.06 +0.11    -0.178 NA 
DOCKED: ATOM     18  H   UNL     1      15.999  32.706   9.239 -0.39 -0.26    +0.149 HD 
DOCKED: BRANCH  17  19
DOCKED: ATOM     19  S   UNL     1      16.426  34.353   7.774 -0.38 -0.00    +0.059 S  
DOCKED: ATOM     20  O   UNL     1      17.361  35.390   8.167 -0.10 +0.01    -0.153 OA 
DOCKED: ATOM     21  O   UNL     1      16.353  33.897   6.394 -0.36 -0.05    -0.153 OA 
DOCKED: BRANCH  19  22
DOCKED: ATOM     22  C   UNL     1      14.824  34.854   8.325 -0.23 -0.02    +0.106 A  
DOCKED: ATOM     23  C   UNL     1      14.188  35.918   7.687 -0.20 +0.00    +0.029 A  
DOCKED: ATOM     24  C   UNL     1      13.000  36.423   8.221 -0.33 +0.00    +0.010 A  
DOCKED: ATOM     25  C   UNL     1      12.456  35.890   9.406 -0.30 +0.00    -0.016 A  
DOCKED: ATOM     26  C   UNL     1      11.302  36.434   9.991 -0.25 -0.00    +0.028 A  
DOCKED: ATOM     27  C   UNL     1      10.807  35.919  11.189 -0.35 +0.00    +0.042 A  
DOCKED: ATOM     28 CL   UNL     1       9.384  36.595  11.885 -0.51 -0.04    -0.084 Cl 
DOCKED: ATOM     29  C   UNL     1      11.454  34.867  11.830 -0.17 -0.00    +0.020 A  
DOCKED: ATOM     30  C   UNL     1      12.597  34.310  11.256 -0.29 -0.00    +0.010 A  
DOCKED: ATOM     31  C   UNL     1      13.097  34.797  10.036 -0.29 +0.00    -0.016 A  
DOCKED: ATOM     32  C   UNL     1      14.253  34.254   9.458 -0.28 -0.02    +0.037 A  
DOCKED: ENDBRANCH  19  22
DOCKED: ENDBRANCH  17  19
DOCKED: ENDBRANCH   4  17
DOCKED: TORSDOF 5
DOCKED: TER
DOCKED: ENDMDL
________________________________________________________________________________


    FINAL DOCKED STATE:
    ________________________


Run:   18 / 50
Time taken for this run:   0.000s

DOCKED: MODEL        18
DOCKED: USER    Run = 18
DOCKED: USER
DOCKED: USER    Estimated Free Energy of Binding    =  -4.66 kcal/mol  [=(1)+(2)+(3)-(4)]
DOCKED: USER
DOCKED: USER    (1) Final Intermolecular Energy     =  -6.15 kcal/mol
DOCKED: USER        vdW + Hbond + desolv Energy     =  -5.99 kcal/mol
DOCKED: USER        Electrostatic Energy            =  -0.16 kcal/mol
DOCKED: USER        Moving Ligand-Fixed Receptor    =  -6.15 kcal/mol
DOCKED: USER        Moving Ligand-Moving Receptor   =  +0.00 kcal/mol
DOCKED: USER    (2) Final Total Internal Energy     =  -3.02 kcal/mol
DOCKED: USER    (3) Torsional Free Energy           =  +1.49 kcal/mol
DOCKED: USER    (4) Unbound System's Energy         =  -3.02 kcal/mol
DOCKED: USER
DOCKED: USER
DOCKED: REMARK  Name = 
DOCKED: REMARK  6 active torsions:
DOCKED: REMARK  status: ('A' for Active; 'I' for Inactive)
DOCKED: REMARK    1  A    between atoms: C_1  and  C_2
DOCKED: REMARK    2  A    between atoms: C_2  and  C_3
DOCKED: REMARK    3  A    between atoms: C_2  and  N_11
DOCKED: REMARK    4  A    between atoms: C_14  and  N_15
DOCKED: REMARK    5  A    between atoms: N_15  and  S_16
DOCKED: REMARK    6  A    between atoms: S_16  and  C_19
DOCKED: REMARK                            x       y       z     vdW  Elec       q    Type
DOCKED: REMARK                         _______ _______ _______ _____ _____    ______ ____
DOCKED: USER                              x       y       z     vdW  Elec       q    Type
DOCKED: USER                           _______ _______ _______ _____ _____    ______ ____
DOCKED: ROOT
DOCKED: ATOM      1  N   UNL     1       8.560  23.683  17.621 -0.09 +0.13    -0.289 N  
DOCKED: ATOM      2  C   UNL     1       8.402  22.696  18.666 -0.06 -0.03    +0.110 C  
DOCKED: ATOM      3  C   UNL     1       8.580  21.354  17.942 -0.10 -0.01    +0.049 C  
DOCKED: ATOM      4  C   UNL     1       8.135  21.676  16.517 -0.22 -0.04    +0.164 C  
DOCKED: ATOM      5  C   UNL     1       8.722  23.058  16.400 -0.22 -0.07    +0.235 C  
DOCKED: ATOM      6  O   UNL     1       9.238  23.584  15.438 -0.30 +0.06    -0.274 OA 
DOCKED: ENDROOT
DOCKED: BRANCH   1   8
DOCKED: ATOM      7  C   UNL     1       8.834  25.465  19.303 -0.12 -0.03    +0.038 C  
DOCKED: ATOM      8  C   UNL     1       9.032  25.054  17.836 -0.09 -0.12    +0.159 C  
DOCKED: BRANCH   8   9
DOCKED: ATOM      9  C   UNL     1      10.533  25.217  17.397 -0.18 -0.08    +0.236 C  
DOCKED: ATOM     10  O   UNL     1      10.817  25.830  16.363 -0.50 -0.03    -0.274 OA 
DOCKED: ATOM     11  N   UNL     1      11.538  24.577  18.121 -0.07 +0.04    -0.296 N  
DOCKED: ATOM     12  C   UNL     1      11.385  23.694  19.278 -0.04 -0.03    +0.136 C  
DOCKED: ATOM     13  C   UNL     1      11.902  24.398  20.537 -0.01 -0.04    +0.179 C  
DOCKED: ATOM     14  O   UNL     1      13.271  24.803  20.370 +0.00 +0.06    -0.377 OA 
DOCKED: ATOM     15  C   UNL     1      13.396  25.706  19.251 -0.05 -0.02    +0.179 C  
DOCKED: ATOM     16  C   UNL     1      12.928  25.024  17.956 -0.14 +0.00    +0.136 C  
DOCKED: ENDBRANCH   8   9
DOCKED: ENDBRANCH   1   8
DOCKED: BRANCH   4  17
DOCKED: ATOM     17  N   UNL     1       8.523  20.685  15.510 -0.25 +0.03    -0.178 NA 
DOCKED: ATOM     18  H   UNL     1       8.801  21.043  14.595 +0.06 -0.02    +0.149 HD 
DOCKED: BRANCH  17  19
DOCKED: ATOM     19  S   UNL     1       9.708  19.558  16.014 -0.52 -0.01    +0.059 S  
DOCKED: ATOM     20  O   UNL     1       9.147  18.919  17.188 -0.21 +0.02    -0.153 OA 
DOCKED: ATOM     21  O   UNL     1      10.082  18.777  14.845 -0.41 +0.03    -0.153 OA 
DOCKED: BRANCH  19  22
DOCKED: ATOM     22  C   UNL     1      11.084  20.528  16.551 -0.25 -0.01    +0.106 A  
DOCKED: ATOM     23  C   UNL     1      11.744  21.340  15.629 -0.37 -0.00    +0.029 A  
DOCKED: ATOM     24  C   UNL     1      12.928  21.978  16.007 -0.25 +0.00    +0.010 A  
DOCKED: ATOM     25  C   UNL     1      13.473  21.790  17.291 -0.32 +0.00    -0.016 A  
DOCKED: ATOM     26  C   UNL     1      14.697  22.370  17.659 -0.30 -0.00    +0.028 A  
DOCKED: ATOM     27  C   UNL     1      15.241  22.132  18.922 -0.18 -0.00    +0.042 A  
DOCKED: ATOM     28 CL   UNL     1      16.740  22.861  19.356 -0.19 +0.01    -0.084 Cl 
DOCKED: ATOM     29  C   UNL     1      14.586  21.309  19.832 -0.15 -0.00    +0.020 A  
DOCKED: ATOM     30  C   UNL     1      13.364  20.734  19.484 -0.15 -0.00    +0.010 A  
DOCKED: ATOM     31  C   UNL     1      12.787  20.981  18.227 -0.17 +0.00    -0.016 A  
DOCKED: ATOM     32  C   UNL     1      11.566  20.396  17.862 -0.14 -0.01    +0.037 A  
DOCKED: ENDBRANCH  19  22
DOCKED: ENDBRANCH  17  19
DOCKED: ENDBRANCH   4  17
DOCKED: TORSDOF 5
DOCKED: TER
DOCKED: ENDMDL
________________________________________________________________________________


    FINAL DOCKED STATE:
    ________________________


Run:   19 / 50
Time taken for this run:   0.000s

DOCKED: MODEL        19
DOCKED: USER    Run = 19
DOCKED: USER
DOCKED: USER    Estimated Free Energy of Binding    =  -4.53 kcal/mol  [=(1)+(2)+(3)-(4)]
DOCKED: USER
DOCKED: USER    (1) Final Intermolecular Energy     =  -6.02 kcal/mol
DOCKED: USER        vdW + Hbond + desolv Energy     =  -6.16 kcal/mol
DOCKED: USER        Electrostatic Energy            =  +0.14 kcal/mol
DOCKED: USER        Moving Ligand-Fixed Receptor    =  -6.02 kcal/mol
DOCKED: USER        Moving Ligand-Moving Receptor   =  +0.00 kcal/mol
DOCKED: USER    (2) Final Total Internal Energy     =  -2.57 kcal/mol
DOCKED: USER    (3) Torsional Free Energy           =  +1.49 kcal/mol
DOCKED: USER    (4) Unbound System's Energy         =  -2.57 kcal/mol
DOCKED: USER
DOCKED: USER
DOCKED: REMARK  Name = 
DOCKED: REMARK  6 active torsions:
DOCKED: REMARK  status: ('A' for Active; 'I' for Inactive)
DOCKED: REMARK    1  A    between atoms: C_1  and  C_2
DOCKED: REMARK    2  A    between atoms: C_2  and  C_3
DOCKED: REMARK    3  A    between atoms: C_2  and  N_11
DOCKED: REMARK    4  A    between atoms: C_14  and  N_15
DOCKED: REMARK    5  A    between atoms: N_15  and  S_16
DOCKED: REMARK    6  A    between atoms: S_16  and  C_19
DOCKED: REMARK                            x       y       z     vdW  Elec       q    Type
DOCKED: REMARK                         _______ _______ _______ _____ _____    ______ ____
DOCKED: USER                              x       y       z     vdW  Elec       q    Type
DOCKED: USER                           _______ _______ _______ _____ _____    ______ ____
DOCKED: ROOT
DOCKED: ATOM      1  N   UNL     1       7.084  21.530  17.479 -0.04 +0.08    -0.289 N  
DOCKED: ATOM      2  C   UNL     1       7.450  20.596  18.520 -0.05 -0.02    +0.110 C  
DOCKED: ATOM      3  C   UNL     1       8.419  19.628  17.830 -0.15 -0.01    +0.049 C  
DOCKED: ATOM      4  C   UNL     1       7.973  19.684  16.371 -0.25 -0.02    +0.164 C  
DOCKED: ATOM      5  C   UNL     1       7.663  21.155  16.282 -0.21 -0.06    +0.235 C  
DOCKED: ATOM      6  O   UNL     1       7.849  21.916  15.357 -0.27 +0.10    -0.274 OA 
DOCKED: ENDROOT
DOCKED: BRANCH   1   8
DOCKED: ATOM      7  C   UNL     1       7.884  23.842  17.791 -0.18 -0.02    +0.038 C  
DOCKED: ATOM      8  C   UNL     1       6.662  22.914  17.712 -0.11 -0.07    +0.159 C  
DOCKED: BRANCH   8   9
DOCKED: ATOM      9  C   UNL     1       5.651  23.397  16.609 -0.17 -0.12    +0.236 C  
DOCKED: ATOM     10  O   UNL     1       5.790  24.501  16.075 -0.15 +0.21    -0.274 OA 
DOCKED: ATOM     11  N   UNL     1       4.533  22.618  16.308 -0.08 +0.11    -0.296 N  
DOCKED: ATOM     12  C   UNL     1       4.123  21.361  16.934 -0.08 -0.03    +0.136 C  
DOCKED: ATOM     13  C   UNL     1       4.316  20.205  15.947 -0.11 -0.03    +0.179 C  
DOCKED: ATOM     14  O   UNL     1       3.585  20.444  14.732 -0.14 +0.07    -0.377 OA 
DOCKED: ATOM     15  C   UNL     1       4.033  21.665  14.107 -0.31 -0.05    +0.179 C  
DOCKED: ATOM     16  C   UNL     1       3.817  22.861  15.048 -0.27 -0.05    +0.136 C  
DOCKED: ENDBRANCH   8   9
DOCKED: ENDBRANCH   1   8
DOCKED: BRANCH   4  17
DOCKED: ATOM     17  N   UNL     1       8.933  19.132  15.410 -0.24 +0.03    -0.178 NA 
DOCKED: ATOM     18  H   UNL     1       9.009  19.610  14.510 +0.13 -0.02    +0.149 HD 
DOCKED: BRANCH  17  19
DOCKED: ATOM     19  S   UNL     1      10.516  18.895  16.014 -0.45 -0.01    +0.059 S  
DOCKED: ATOM     20  O   UNL     1      10.358  18.010  17.152 -0.23 +0.02    -0.153 OA 
DOCKED: ATOM     21  O   UNL     1      11.354  18.518  14.885 -0.52 +0.04    -0.153 OA 
DOCKED: BRANCH  19  22
DOCKED: ATOM     22  C   UNL     1      11.025  20.468  16.638 -0.25 -0.01    +0.106 A  
DOCKED: ATOM     23  C   UNL     1      11.554  20.549  17.925 -0.16 -0.00    +0.029 A  
DOCKED: ATOM     24  C   UNL     1      11.804  21.805  18.482 -0.12 -0.00    +0.010 A  
DOCKED: ATOM     25  C   UNL     1      11.502  22.984  17.774 -0.14 +0.00    -0.016 A  
DOCKED: ATOM     26  C   UNL     1      11.682  24.251  18.349 -0.11 -0.00    +0.028 A  
DOCKED: ATOM     27  C   UNL     1      11.332  25.404  17.645 -0.20 -0.01    +0.042 A  
DOCKED: ATOM     28 CL   UNL     1      11.571  26.949  18.367 -0.25 +0.02    -0.084 Cl 
DOCKED: ATOM     29  C   UNL     1      10.790  25.317  16.367 -0.14 +0.00    +0.020 A  
DOCKED: ATOM     30  C   UNL     1      10.614  24.064  15.778 -0.34 +0.00    +0.010 A  
DOCKED: ATOM     31  C   UNL     1      10.983  22.893  16.460 -0.27 +0.00    -0.016 A  
DOCKED: ATOM     32  C   UNL     1      10.797  21.628  15.883 -0.27 -0.00    +0.037 A  
DOCKED: ENDBRANCH  19  22
DOCKED: ENDBRANCH  17  19
DOCKED: ENDBRANCH   4  17
DOCKED: TORSDOF 5
DOCKED: TER
DOCKED: ENDMDL
________________________________________________________________________________


    FINAL DOCKED STATE:
    ________________________


Run:   20 / 50
Time taken for this run:   0.000s

DOCKED: MODEL        20
DOCKED: USER    Run = 20
DOCKED: USER
DOCKED: USER    Estimated Free Energy of Binding    =  -4.89 kcal/mol  [=(1)+(2)+(3)-(4)]
DOCKED: USER
DOCKED: USER    (1) Final Intermolecular Energy     =  -6.38 kcal/mol
DOCKED: USER        vdW + Hbond + desolv Energy     =  -6.35 kcal/mol
DOCKED: USER        Electrostatic Energy            =  -0.03 kcal/mol
DOCKED: USER        Moving Ligand-Fixed Receptor    =  -6.38 kcal/mol
DOCKED: USER        Moving Ligand-Moving Receptor   =  +0.00 kcal/mol
DOCKED: USER    (2) Final Total Internal Energy     =  -2.19 kcal/mol
DOCKED: USER    (3) Torsional Free Energy           =  +1.49 kcal/mol
DOCKED: USER    (4) Unbound System's Energy         =  -2.19 kcal/mol
DOCKED: USER
DOCKED: USER
DOCKED: REMARK  Name = 
DOCKED: REMARK  6 active torsions:
DOCKED: REMARK  status: ('A' for Active; 'I' for Inactive)
DOCKED: REMARK    1  A    between atoms: C_1  and  C_2
DOCKED: REMARK    2  A    between atoms: C_2  and  C_3
DOCKED: REMARK    3  A    between atoms: C_2  and  N_11
DOCKED: REMARK    4  A    between atoms: C_14  and  N_15
DOCKED: REMARK    5  A    between atoms: N_15  and  S_16
DOCKED: REMARK    6  A    between atoms: S_16  and  C_19
DOCKED: REMARK                            x       y       z     vdW  Elec       q    Type
DOCKED: REMARK                         _______ _______ _______ _____ _____    ______ ____
DOCKED: USER                              x       y       z     vdW  Elec       q    Type
DOCKED: USER                           _______ _______ _______ _____ _____    ______ ____
DOCKED: ROOT
DOCKED: ATOM      1  N   UNL     1      20.041  25.194  16.571 -0.11 +0.05    -0.289 N  
DOCKED: ATOM      2  C   UNL     1      18.915  24.427  17.055 -0.24 -0.02    +0.110 C  
DOCKED: ATOM      3  C   UNL     1      17.700  25.094  16.397 -0.33 -0.00    +0.049 C  
DOCKED: ATOM      4  C   UNL     1      18.173  26.530  16.188 -0.22 +0.01    +0.164 C  
DOCKED: ATOM      5  C   UNL     1      19.599  26.248  15.796 -0.13 -0.02    +0.235 C  
DOCKED: ATOM      6  O   UNL     1      20.287  26.812  14.973 -0.06 +0.02    -0.274 OA 
DOCKED: ENDROOT
DOCKED: BRANCH   1   8
DOCKED: ATOM      7  C   UNL     1      21.517  23.284  17.079 -0.20 -0.01    +0.038 C  
DOCKED: ATOM      8  C   UNL     1      21.404  24.672  16.431 -0.15 -0.03    +0.159 C  
DOCKED: BRANCH   8   9
DOCKED: ATOM      9  C   UNL     1      21.847  24.632  14.922 -0.21 -0.06    +0.236 C  
DOCKED: ATOM     10  O   UNL     1      21.313  23.845  14.135 -0.29 +0.11    -0.274 OA 
DOCKED: ATOM     11  N   UNL     1      22.920  25.416  14.497 -0.10 +0.08    -0.296 N  
DOCKED: ATOM     12  C   UNL     1      23.765  26.293  15.307 -0.05 -0.03    +0.136 C  
DOCKED: ATOM     13  C   UNL     1      23.474  27.757  14.960 -0.04 -0.04    +0.179 C  
DOCKED: ATOM     14  O   UNL     1      23.670  27.997  13.556 -0.04 +0.08    -0.377 OA 
DOCKED: ATOM     15  C   UNL     1      22.798  27.154  12.774 -0.10 -0.04    +0.179 C  
DOCKED: ATOM     16  C   UNL     1      23.087  25.671  13.060 -0.21 -0.05    +0.136 C  
DOCKED: ENDBRANCH   8   9
DOCKED: ENDBRANCH   1   8
DOCKED: BRANCH   4  17
DOCKED: ATOM     17  N   UNL     1      17.357  27.321  15.261 -0.65 -0.07    -0.178 NA 
DOCKED: ATOM     18  H   UNL     1      16.351  27.146  15.271 +0.03 +0.06    +0.149 HD 
DOCKED: BRANCH  17  19
DOCKED: ATOM     19  S   UNL     1      17.598  29.012  15.338 -0.30 -0.00    +0.059 S  
DOCKED: ATOM     20  O   UNL     1      16.343  29.593  14.901 -0.36 -0.01    -0.153 OA 
DOCKED: ATOM     21  O   UNL     1      18.139  29.310  16.655 -0.05 +0.02    -0.153 OA 
DOCKED: BRANCH  19  22
DOCKED: ATOM     22  C   UNL     1      18.804  29.376  14.098 -0.16 -0.04    +0.106 A  
DOCKED: ATOM     23  C   UNL     1      20.124  29.607  14.483 -0.11 -0.01    +0.029 A  
DOCKED: ATOM     24  C   UNL     1      21.043  30.055  13.531 -0.10 -0.00    +0.010 A  
DOCKED: ATOM     25  C   UNL     1      20.647  30.300  12.203 -0.16 +0.01    -0.016 A  
DOCKED: ATOM     26  C   UNL     1      21.544  30.817  11.255 -0.16 -0.01    +0.028 A  
DOCKED: ATOM     27  C   UNL     1      21.117  31.095   9.956 -0.25 -0.00    +0.042 A  
DOCKED: ATOM     28 CL   UNL     1      22.237  31.720   8.806 -0.38 -0.01    -0.084 Cl 
DOCKED: ATOM     29  C   UNL     1      19.795  30.877   9.582 -0.35 -0.00    +0.020 A  
DOCKED: ATOM     30  C   UNL     1      18.895  30.355  10.510 -0.42 -0.01    +0.010 A  
DOCKED: ATOM     31  C   UNL     1      19.310  30.044  11.816 -0.29 +0.01    -0.016 A  
DOCKED: ATOM     32  C   UNL     1      18.410  29.532  12.761 -0.18 -0.03    +0.037 A  
DOCKED: ENDBRANCH  19  22
DOCKED: ENDBRANCH  17  19
DOCKED: ENDBRANCH   4  17
DOCKED: TORSDOF 5
DOCKED: TER
DOCKED: ENDMDL
________________________________________________________________________________


    FINAL DOCKED STATE:
    ________________________


Run:   21 / 50
Time taken for this run:   0.000s

DOCKED: MODEL        21
DOCKED: USER    Run = 21
DOCKED: USER
DOCKED: USER    Estimated Free Energy of Binding    =  -3.96 kcal/mol  [=(1)+(2)+(3)-(4)]
DOCKED: USER
DOCKED: USER    (1) Final Intermolecular Energy     =  -5.45 kcal/mol
DOCKED: USER        vdW + Hbond + desolv Energy     =  -5.40 kcal/mol
DOCKED: USER        Electrostatic Energy            =  -0.06 kcal/mol
DOCKED: USER        Moving Ligand-Fixed Receptor    =  -5.45 kcal/mol
DOCKED: USER        Moving Ligand-Moving Receptor   =  +0.00 kcal/mol
DOCKED: USER    (2) Final Total Internal Energy     =  -2.75 kcal/mol
DOCKED: USER    (3) Torsional Free Energy           =  +1.49 kcal/mol
DOCKED: USER    (4) Unbound System's Energy         =  -2.75 kcal/mol
DOCKED: USER
DOCKED: USER
DOCKED: REMARK  Name = 
DOCKED: REMARK  6 active torsions:
DOCKED: REMARK  status: ('A' for Active; 'I' for Inactive)
DOCKED: REMARK    1  A    between atoms: C_1  and  C_2
DOCKED: REMARK    2  A    between atoms: C_2  and  C_3
DOCKED: REMARK    3  A    between atoms: C_2  and  N_11
DOCKED: REMARK    4  A    between atoms: C_14  and  N_15
DOCKED: REMARK    5  A    between atoms: N_15  and  S_16
DOCKED: REMARK    6  A    between atoms: S_16  and  C_19
DOCKED: REMARK                            x       y       z     vdW  Elec       q    Type
DOCKED: REMARK                         _______ _______ _______ _____ _____    ______ ____
DOCKED: USER                              x       y       z     vdW  Elec       q    Type
DOCKED: USER                           _______ _______ _______ _____ _____    ______ ____
DOCKED: ROOT
DOCKED: ATOM      1  N   UNL     1      13.159  20.984  18.614 -0.10 +0.04    -0.289 N  
DOCKED: ATOM      2  C   UNL     1      14.221  21.885  18.226 -0.26 -0.02    +0.110 C  
DOCKED: ATOM      3  C   UNL     1      13.735  22.487  16.901 -0.27 -0.00    +0.049 C  
DOCKED: ATOM      4  C   UNL     1      12.826  21.393  16.346 -0.32 -0.02    +0.164 C  
DOCKED: ATOM      5  C   UNL     1      12.186  20.950  17.635 -0.13 -0.03    +0.235 C  
DOCKED: ATOM      6  O   UNL     1      11.042  20.602  17.835 -0.11 +0.04    -0.274 OA 
DOCKED: ENDROOT
DOCKED: BRANCH   1   8
DOCKED: ATOM      7  C   UNL     1      14.073  20.839  20.900 -0.09 -0.00    +0.038 C  
DOCKED: ATOM      8  C   UNL     1      12.852  20.605  19.997 -0.10 -0.02    +0.159 C  
DOCKED: BRANCH   8   9
DOCKED: ATOM      9  C   UNL     1      11.592  21.376  20.534 -0.03 -0.04    +0.236 C  
DOCKED: ATOM     10  O   UNL     1      11.669  22.575  20.822 -0.01 +0.05    -0.274 OA 
DOCKED: ATOM     11  N   UNL     1      10.410  20.679  20.786 -0.01 +0.05    -0.296 N  
DOCKED: ATOM     12  C   UNL     1      10.173  19.242  20.649 -0.05 -0.02    +0.136 C  
DOCKED: ATOM     13  C   UNL     1       9.241  18.983  19.460 -0.07 -0.02    +0.179 C  
DOCKED: ATOM     14  O   UNL     1       8.006  19.702  19.614 -0.01 +0.06    -0.377 OA 
DOCKED: ATOM     15  C   UNL     1       8.256  21.120  19.705 -0.02 -0.04    +0.179 C  
DOCKED: ATOM     16  C   UNL     1       9.155  21.431  20.913 -0.01 -0.03    +0.136 C  
DOCKED: ENDBRANCH   8   9
DOCKED: ENDBRANCH   1   8
DOCKED: BRANCH   4  17
DOCKED: ATOM     17  N   UNL     1      11.940  21.820  15.259 -0.31 -0.01    -0.178 NA 
DOCKED: ATOM     18  H   UNL     1      11.436  21.085  14.760 +0.11 +0.00    +0.149 HD 
DOCKED: BRANCH  17  19
DOCKED: ATOM     19  S   UNL     1      10.814  23.040  15.671 -0.48 +0.00    +0.059 S  
DOCKED: ATOM     20  O   UNL     1      11.195  23.473  17.002 -0.18 +0.01    -0.153 OA 
DOCKED: ATOM     21  O   UNL     1      10.776  23.982  14.562 -0.38 -0.03    -0.153 OA 
DOCKED: BRANCH  19  22
DOCKED: ATOM     22  C   UNL     1       9.256  22.219  15.812 -0.27 -0.02    +0.106 A  
DOCKED: ATOM     23  C   UNL     1       8.105  22.977  16.024 -0.30 -0.01    +0.029 A  
DOCKED: ATOM     24  C   UNL     1       6.900  22.325  16.300 -0.26 -0.00    +0.010 A  
DOCKED: ATOM     25  C   UNL     1       6.842  20.922  16.392 -0.22 +0.00    -0.016 A  
DOCKED: ATOM     26  C   UNL     1       5.654  20.259  16.737 -0.15 -0.00    +0.028 A  
DOCKED: ATOM     27  C   UNL     1       5.631  18.871  16.868 -0.17 -0.00    +0.042 A  
DOCKED: ATOM     28 CL   UNL     1       4.159  18.077  17.283 -0.19 +0.01    -0.084 Cl 
DOCKED: ATOM     29  C   UNL     1       6.785  18.121  16.671 -0.24 -0.00    +0.020 A  
DOCKED: ATOM     30  C   UNL     1       7.971  18.764  16.317 -0.22 -0.00    +0.010 A  
DOCKED: ATOM     31  C   UNL     1       8.010  20.159  16.156 -0.27 +0.00    -0.016 A  
DOCKED: ATOM     32  C   UNL     1       9.201  20.817  15.815 -0.29 -0.01    +0.037 A  
DOCKED: ENDBRANCH  19  22
DOCKED: ENDBRANCH  17  19
DOCKED: ENDBRANCH   4  17
DOCKED: TORSDOF 5
DOCKED: TER
DOCKED: ENDMDL
________________________________________________________________________________


    FINAL DOCKED STATE:
    ________________________


Run:   22 / 50
Time taken for this run:   0.000s

DOCKED: MODEL        22
DOCKED: USER    Run = 22
DOCKED: USER
DOCKED: USER    Estimated Free Energy of Binding    =  -5.95 kcal/mol  [=(1)+(2)+(3)-(4)]
DOCKED: USER
DOCKED: USER    (1) Final Intermolecular Energy     =  -7.44 kcal/mol
DOCKED: USER        vdW + Hbond + desolv Energy     =  -7.22 kcal/mol
DOCKED: USER        Electrostatic Energy            =  -0.22 kcal/mol
DOCKED: USER        Moving Ligand-Fixed Receptor    =  -7.44 kcal/mol
DOCKED: USER        Moving Ligand-Moving Receptor   =  +0.00 kcal/mol
DOCKED: USER    (2) Final Total Internal Energy     =  -1.28 kcal/mol
DOCKED: USER    (3) Torsional Free Energy           =  +1.49 kcal/mol
DOCKED: USER    (4) Unbound System's Energy         =  -1.28 kcal/mol
DOCKED: USER
DOCKED: USER
DOCKED: REMARK  Name = 
DOCKED: REMARK  6 active torsions:
DOCKED: REMARK  status: ('A' for Active; 'I' for Inactive)
DOCKED: REMARK    1  A    between atoms: C_1  and  C_2
DOCKED: REMARK    2  A    between atoms: C_2  and  C_3
DOCKED: REMARK    3  A    between atoms: C_2  and  N_11
DOCKED: REMARK    4  A    between atoms: C_14  and  N_15
DOCKED: REMARK    5  A    between atoms: N_15  and  S_16
DOCKED: REMARK    6  A    between atoms: S_16  and  C_19
DOCKED: REMARK                            x       y       z     vdW  Elec       q    Type
DOCKED: REMARK                         _______ _______ _______ _____ _____    ______ ____
DOCKED: USER                              x       y       z     vdW  Elec       q    Type
DOCKED: USER                           _______ _______ _______ _____ _____    ______ ____
DOCKED: ROOT
DOCKED: ATOM      1  N   UNL     1      19.743  31.428  10.897 -0.11 +0.12    -0.289 N  
DOCKED: ATOM      2  C   UNL     1      19.351  30.386   9.974 -0.41 -0.04    +0.110 C  
DOCKED: ATOM      3  C   UNL     1      18.367  29.526  10.777 -0.46 -0.04    +0.049 C  
DOCKED: ATOM      4  C   UNL     1      18.825  29.744  12.218 -0.26 -0.13    +0.164 C  
DOCKED: ATOM      5  C   UNL     1      19.166  31.208  12.132 -0.14 -0.16    +0.235 C  
DOCKED: ATOM      6  O   UNL     1      19.002  32.076  12.962 -0.07 +0.17    -0.274 OA 
DOCKED: ENDROOT
DOCKED: BRANCH   1   8
DOCKED: ATOM      7  C   UNL     1      21.267  33.281  11.469 -0.04 -0.01    +0.038 C  
DOCKED: ATOM      8  C   UNL     1      20.192  32.766  10.500 -0.10 -0.04    +0.159 C  
DOCKED: BRANCH   8   9
DOCKED: ATOM      9  C   UNL     1      20.711  32.777   9.016 -0.16 +0.04    +0.236 C  
DOCKED: ATOM     10  O   UNL     1      20.090  33.389   8.142 -0.61 -0.19    -0.274 OA 
DOCKED: ATOM     11  N   UNL     1      21.819  32.006   8.666 -0.17 -0.04    -0.296 N  
DOCKED: ATOM     12  C   UNL     1      22.591  31.107   9.524 -0.20 -0.01    +0.136 C  
DOCKED: ATOM     13  C   UNL     1      23.977  31.706   9.786 -0.22 -0.02    +0.179 C  
DOCKED: ATOM     14  O   UNL     1      24.664  31.963   8.550 -0.60 -0.07    -0.377 OA 
DOCKED: ATOM     15  C   UNL     1      23.909  32.884   7.735 -0.21 +0.02    +0.179 C  
DOCKED: ATOM     16  C   UNL     1      22.523  32.302   7.411 -0.18 +0.04    +0.136 C  
DOCKED: ENDBRANCH   8   9
DOCKED: ENDBRANCH   1   8
DOCKED: BRANCH   4  17
DOCKED: ATOM     17  N   UNL     1      17.862  29.329  13.242 -0.19 +0.15    -0.178 NA 
DOCKED: ATOM     18  H   UNL     1      17.505  28.374  13.177 -0.24 -0.10    +0.149 HD 
DOCKED: BRANCH  17  19
DOCKED: ATOM     19  S   UNL     1      18.353  29.597  14.858 -0.25 -0.02    +0.059 S  
DOCKED: ATOM     20  O   UNL     1      19.793  29.757  14.794 -0.08 +0.04    -0.153 OA 
DOCKED: ATOM     21  O   UNL     1      17.508  30.654  15.394 -0.11 +0.05    -0.153 OA 
DOCKED: BRANCH  19  22
DOCKED: ATOM     22  C   UNL     1      18.030  28.083  15.709 -0.16 +0.00    +0.106 A  
DOCKED: ATOM     23  C   UNL     1      18.963  27.050  15.635 -0.15 +0.00    +0.029 A  
DOCKED: ATOM     24  C   UNL     1      18.640  25.799  16.165 -0.25 -0.00    +0.010 A  
DOCKED: ATOM     25  C   UNL     1      17.379  25.563  16.744 -0.28 +0.00    -0.016 A  
DOCKED: ATOM     26  C   UNL     1      17.016  24.292  17.217 -0.28 -0.00    +0.028 A  
DOCKED: ATOM     27  C   UNL     1      15.744  24.071  17.745 -0.22 -0.00    +0.042 A  
DOCKED: ATOM     28 CL   UNL     1      15.323  22.506  18.328 -0.35 +0.01    -0.084 Cl 
DOCKED: ATOM     29  C   UNL     1      14.811  25.101  17.802 -0.13 +0.00    +0.020 A  
DOCKED: ATOM     30  C   UNL     1      15.160  26.372  17.345 -0.15 +0.00    +0.010 A  
DOCKED: ATOM     31  C   UNL     1      16.444  26.622  16.833 -0.24 -0.00    -0.016 A  
DOCKED: ATOM     32  C   UNL     1      16.801  27.892  16.357 -0.21 +0.00    +0.037 A  
DOCKED: ENDBRANCH  19  22
DOCKED: ENDBRANCH  17  19
DOCKED: ENDBRANCH   4  17
DOCKED: TORSDOF 5
DOCKED: TER
DOCKED: ENDMDL
________________________________________________________________________________


    FINAL DOCKED STATE:
    ________________________


Run:   23 / 50
Time taken for this run:   0.000s

DOCKED: MODEL        23
DOCKED: USER    Run = 23
DOCKED: USER
DOCKED: USER    Estimated Free Energy of Binding    =  -4.20 kcal/mol  [=(1)+(2)+(3)-(4)]
DOCKED: USER
DOCKED: USER    (1) Final Intermolecular Energy     =  -5.69 kcal/mol
DOCKED: USER        vdW + Hbond + desolv Energy     =  -5.66 kcal/mol
DOCKED: USER        Electrostatic Energy            =  -0.03 kcal/mol
DOCKED: USER        Moving Ligand-Fixed Receptor    =  -5.69 kcal/mol
DOCKED: USER        Moving Ligand-Moving Receptor   =  +0.00 kcal/mol
DOCKED: USER    (2) Final Total Internal Energy     =  -2.66 kcal/mol
DOCKED: USER    (3) Torsional Free Energy           =  +1.49 kcal/mol
DOCKED: USER    (4) Unbound System's Energy         =  -2.66 kcal/mol
DOCKED: USER
DOCKED: USER
DOCKED: REMARK  Name = 
DOCKED: REMARK  6 active torsions:
DOCKED: REMARK  status: ('A' for Active; 'I' for Inactive)
DOCKED: REMARK    1  A    between atoms: C_1  and  C_2
DOCKED: REMARK    2  A    between atoms: C_2  and  C_3
DOCKED: REMARK    3  A    between atoms: C_2  and  N_11
DOCKED: REMARK    4  A    between atoms: C_14  and  N_15
DOCKED: REMARK    5  A    between atoms: N_15  and  S_16
DOCKED: REMARK    6  A    between atoms: S_16  and  C_19
DOCKED: REMARK                            x       y       z     vdW  Elec       q    Type
DOCKED: REMARK                         _______ _______ _______ _____ _____    ______ ____
DOCKED: USER                              x       y       z     vdW  Elec       q    Type
DOCKED: USER                           _______ _______ _______ _____ _____    ______ ____
DOCKED: ROOT
DOCKED: ATOM      1  N   UNL     1      15.578  25.447  17.508 -0.12 -0.02    -0.289 N  
DOCKED: ATOM      2  C   UNL     1      16.426  26.587  17.778 -0.12 +0.00    +0.110 C  
DOCKED: ATOM      3  C   UNL     1      15.596  27.451  18.736 -0.06 -0.00    +0.049 C  
DOCKED: ATOM      4  C   UNL     1      14.161  27.083  18.368 -0.11 +0.01    +0.164 C  
DOCKED: ATOM      5  C   UNL     1      14.355  25.609  18.130 -0.11 +0.01    +0.235 C  
DOCKED: ATOM      6  O   UNL     1      13.610  24.692  18.397 -0.08 +0.01    -0.274 OA 
DOCKED: ENDROOT
DOCKED: BRANCH   1   8
DOCKED: ATOM      7  C   UNL     1      17.565  24.167  16.804 -0.33 -0.01    +0.038 C  
DOCKED: ATOM      8  C   UNL     1      16.066  24.115  17.137 -0.19 -0.00    +0.159 C  
DOCKED: BRANCH   8   9
DOCKED: ATOM      9  C   UNL     1      15.770  23.064  18.268 -0.18 -0.03    +0.236 C  
DOCKED: ATOM     10  O   UNL     1      16.374  23.118  19.344 -0.09 +0.03    -0.274 OA 
DOCKED: ATOM     11  N   UNL     1      14.899  22.004  18.015 -0.19 +0.05    -0.296 N  
DOCKED: ATOM     12  C   UNL     1      14.209  21.691  16.764 -0.31 -0.02    +0.136 C  
DOCKED: ATOM     13  C   UNL     1      12.708  21.961  16.920 -0.27 -0.01    +0.179 C  
DOCKED: ATOM     14  O   UNL     1      12.166  21.206  18.017 -0.08 +0.05    -0.377 OA 
DOCKED: ATOM     15  C   UNL     1      12.830  21.558  19.249 -0.10 -0.03    +0.179 C  
DOCKED: ATOM     16  C   UNL     1      14.335  21.263  19.151 -0.19 -0.02    +0.136 C  
DOCKED: ENDBRANCH   8   9
DOCKED: ENDBRANCH   1   8
DOCKED: BRANCH   4  17
DOCKED: ATOM     17  N   UNL     1      13.149  27.485  19.350 -0.03 +0.02    -0.178 NA 
DOCKED: ATOM     18  H   UNL     1      13.438  28.165  20.056 +0.01 -0.02    +0.149 HD 
DOCKED: BRANCH  17  19
DOCKED: ATOM     19  S   UNL     1      11.661  28.013  18.691 -0.19 -0.02    +0.059 S  
DOCKED: ATOM     20  O   UNL     1      10.972  28.665  19.787 -0.06 +0.08    -0.153 OA 
DOCKED: ATOM     21  O   UNL     1      11.967  28.735  17.466 -0.51 -0.03    -0.153 OA 
DOCKED: BRANCH  19  22
DOCKED: ATOM     22  C   UNL     1      10.764  26.539  18.309 -0.14 -0.06    +0.106 A  
DOCKED: ATOM     23  C   UNL     1      10.099  25.864  19.332 -0.09 -0.02    +0.029 A  
DOCKED: ATOM     24  C   UNL     1       9.529  24.616  19.068 -0.09 -0.00    +0.010 A  
DOCKED: ATOM     25  C   UNL     1       9.643  24.024  17.796 -0.16 +0.01    -0.016 A  
DOCKED: ATOM     26  C   UNL     1       9.136  22.741  17.538 -0.14 -0.01    +0.028 A  
DOCKED: ATOM     27  C   UNL     1       9.301  22.155  16.283 -0.27 -0.01    +0.042 A  
DOCKED: ATOM     28 CL   UNL     1       8.663  20.583  15.985 -0.45 +0.01    -0.084 Cl 
DOCKED: ATOM     29  C   UNL     1       9.980  22.825  15.271 -0.26 -0.00    +0.020 A  
DOCKED: ATOM     30  C   UNL     1      10.481  24.105  15.509 -0.36 +0.00    +0.010 A  
DOCKED: ATOM     31  C   UNL     1      10.303  24.724  16.758 -0.26 +0.00    -0.016 A  
DOCKED: ATOM     32  C   UNL     1      10.815  26.004  17.013 -0.15 -0.01    +0.037 A  
DOCKED: ENDBRANCH  19  22
DOCKED: ENDBRANCH  17  19
DOCKED: ENDBRANCH   4  17
DOCKED: TORSDOF 5
DOCKED: TER
DOCKED: ENDMDL
________________________________________________________________________________


    FINAL DOCKED STATE:
    ________________________


Run:   24 / 50
Time taken for this run:   0.000s

DOCKED: MODEL        24
DOCKED: USER    Run = 24
DOCKED: USER
DOCKED: USER    Estimated Free Energy of Binding    =  -4.92 kcal/mol  [=(1)+(2)+(3)-(4)]
DOCKED: USER
DOCKED: USER    (1) Final Intermolecular Energy     =  -6.41 kcal/mol
DOCKED: USER        vdW + Hbond + desolv Energy     =  -6.42 kcal/mol
DOCKED: USER        Electrostatic Energy            =  +0.01 kcal/mol
DOCKED: USER        Moving Ligand-Fixed Receptor    =  -6.41 kcal/mol
DOCKED: USER        Moving Ligand-Moving Receptor   =  +0.00 kcal/mol
DOCKED: USER    (2) Final Total Internal Energy     =  -1.80 kcal/mol
DOCKED: USER    (3) Torsional Free Energy           =  +1.49 kcal/mol
DOCKED: USER    (4) Unbound System's Energy         =  -1.80 kcal/mol
DOCKED: USER
DOCKED: USER
DOCKED: REMARK  Name = 
DOCKED: REMARK  6 active torsions:
DOCKED: REMARK  status: ('A' for Active; 'I' for Inactive)
DOCKED: REMARK    1  A    between atoms: C_1  and  C_2
DOCKED: REMARK    2  A    between atoms: C_2  and  C_3
DOCKED: REMARK    3  A    between atoms: C_2  and  N_11
DOCKED: REMARK    4  A    between atoms: C_14  and  N_15
DOCKED: REMARK    5  A    between atoms: N_15  and  S_16
DOCKED: REMARK    6  A    between atoms: S_16  and  C_19
DOCKED: REMARK                            x       y       z     vdW  Elec       q    Type
DOCKED: REMARK                         _______ _______ _______ _____ _____    ______ ____
DOCKED: USER                              x       y       z     vdW  Elec       q    Type
DOCKED: USER                           _______ _______ _______ _____ _____    ______ ____
DOCKED: ROOT
DOCKED: ATOM      1  N   UNL     1      11.392  21.052  16.176 -0.19 +0.03    -0.289 N  
DOCKED: ATOM      2  C   UNL     1      12.195  20.835  14.993 -0.29 -0.01    +0.110 C  
DOCKED: ATOM      3  C   UNL     1      13.639  20.992  15.489 +0.01 -0.01    +0.049 C  
DOCKED: ATOM      4  C   UNL     1      13.487  21.932  16.682 -0.29 -0.01    +0.164 C  
DOCKED: ATOM      5  C   UNL     1      12.201  21.387  17.244 -0.19 -0.03    +0.235 C  
DOCKED: ATOM      6  O   UNL     1      11.874  21.256  18.403 -0.09 +0.04    -0.274 OA 
DOCKED: ENDROOT
DOCKED: BRANCH   1   8
DOCKED: ATOM      7  C   UNL     1      10.146  19.186  17.200 -0.28 -0.01    +0.038 C  
DOCKED: ATOM      8  C   UNL     1      10.055  20.487  16.389 -0.28 -0.02    +0.159 C  
DOCKED: BRANCH   8   9
DOCKED: ATOM      9  C   UNL     1       9.102  21.526  17.085 -0.13 -0.05    +0.236 C  
DOCKED: ATOM     10  O   UNL     1       8.311  21.159  17.960 -0.04 +0.06    -0.274 OA 
DOCKED: ATOM     11  N   UNL     1       9.075  22.847  16.637 -0.13 +0.08    -0.296 N  
DOCKED: ATOM     12  C   UNL     1       9.824  23.430  15.524 -0.36 -0.02    +0.136 C  
DOCKED: ATOM     13  C   UNL     1      10.899  24.379  16.066 -0.21 +0.01    +0.179 C  
DOCKED: ATOM     14  O   UNL     1      10.311  25.400  16.890 -0.21 +0.13    -0.377 OA 
DOCKED: ATOM     15  C   UNL     1       9.612  24.808  18.005 -0.14 -0.09    +0.179 C  
DOCKED: ATOM     16  C   UNL     1       8.493  23.879  17.506 -0.17 -0.07    +0.136 C  
DOCKED: ENDBRANCH   8   9
DOCKED: ENDBRANCH   1   8
DOCKED: BRANCH   4  17
DOCKED: ATOM     17  N   UNL     1      14.649  21.989  17.575 -0.26 +0.03    -0.178 NA 
DOCKED: ATOM     18  H   UNL     1      15.559  21.783  17.159 -0.28 -0.07    +0.149 HD 
DOCKED: BRANCH  17  19
DOCKED: ATOM     19  S   UNL     1      14.802  23.431  18.483 -0.24 -0.00    +0.059 S  
DOCKED: ATOM     20  O   UNL     1      13.637  24.222  18.135 -0.14 +0.00    -0.153 OA 
DOCKED: ATOM     21  O   UNL     1      15.057  23.044  19.862 -0.06 +0.02    -0.153 OA 
DOCKED: BRANCH  19  22
DOCKED: ATOM     22  C   UNL     1      16.216  24.259  17.822 -0.19 -0.01    +0.106 A  
DOCKED: ATOM     23  C   UNL     1      16.042  25.467  17.148 -0.18 +0.00    +0.029 A  
DOCKED: ATOM     24  C   UNL     1      17.129  26.040  16.483 -0.30 +0.00    +0.010 A  
DOCKED: ATOM     25  C   UNL     1      18.383  25.401  16.463 -0.27 +0.00    -0.016 A  
DOCKED: ATOM     26  C   UNL     1      19.464  25.931  15.741 -0.17 -0.00    +0.028 A  
DOCKED: ATOM     27  C   UNL     1      20.684  25.256  15.698 -0.20 -0.01    +0.042 A  
DOCKED: ATOM     28 CL   UNL     1      22.000  25.929  14.814 -0.27 +0.02    -0.084 Cl 
DOCKED: ATOM     29  C   UNL     1      20.847  24.043  16.359 -0.23 -0.00    +0.020 A  
DOCKED: ATOM     30  C   UNL     1      19.786  23.509  17.089 -0.15 -0.00    +0.010 A  
DOCKED: ATOM     31  C   UNL     1      18.556  24.185  17.166 -0.26 +0.00    -0.016 A  
DOCKED: ATOM     32  C   UNL     1      17.478  23.650  17.885 -0.21 -0.00    +0.037 A  
DOCKED: ENDBRANCH  19  22
DOCKED: ENDBRANCH  17  19
DOCKED: ENDBRANCH   4  17
DOCKED: TORSDOF 5
DOCKED: TER
DOCKED: ENDMDL
________________________________________________________________________________


    FINAL DOCKED STATE:
    ________________________


Run:   25 / 50
Time taken for this run:   0.000s

DOCKED: MODEL        25
DOCKED: USER    Run = 25
DOCKED: USER
DOCKED: USER    Estimated Free Energy of Binding    =  -4.73 kcal/mol  [=(1)+(2)+(3)-(4)]
DOCKED: USER
DOCKED: USER    (1) Final Intermolecular Energy     =  -6.22 kcal/mol
DOCKED: USER        vdW + Hbond + desolv Energy     =  -6.15 kcal/mol
DOCKED: USER        Electrostatic Energy            =  -0.07 kcal/mol
DOCKED: USER        Moving Ligand-Fixed Receptor    =  -6.22 kcal/mol
DOCKED: USER        Moving Ligand-Moving Receptor   =  +0.00 kcal/mol
DOCKED: USER    (2) Final Total Internal Energy     =  -2.69 kcal/mol
DOCKED: USER    (3) Torsional Free Energy           =  +1.49 kcal/mol
DOCKED: USER    (4) Unbound System's Energy         =  -2.69 kcal/mol
DOCKED: USER
DOCKED: USER
DOCKED: REMARK  Name = 
DOCKED: REMARK  6 active torsions:
DOCKED: REMARK  status: ('A' for Active; 'I' for Inactive)
DOCKED: REMARK    1  A    between atoms: C_1  and  C_2
DOCKED: REMARK    2  A    between atoms: C_2  and  C_3
DOCKED: REMARK    3  A    between atoms: C_2  and  N_11
DOCKED: REMARK    4  A    between atoms: C_14  and  N_15
DOCKED: REMARK    5  A    between atoms: N_15  and  S_16
DOCKED: REMARK    6  A    between atoms: S_16  and  C_19
DOCKED: REMARK                            x       y       z     vdW  Elec       q    Type
DOCKED: REMARK                         _______ _______ _______ _____ _____    ______ ____
DOCKED: USER                              x       y       z     vdW  Elec       q    Type
DOCKED: USER                           _______ _______ _______ _____ _____    ______ ____
DOCKED: ROOT
DOCKED: ATOM      1  N   UNL     1       7.167  20.008  17.247 -0.07 +0.05    -0.289 N  
DOCKED: ATOM      2  C   UNL     1       6.175  21.058  17.193 -0.12 -0.03    +0.110 C  
DOCKED: ATOM      3  C   UNL     1       6.732  22.046  16.161 -0.28 -0.02    +0.049 C  
DOCKED: ATOM      4  C   UNL     1       8.240  21.823  16.258 -0.26 -0.04    +0.164 C  
DOCKED: ATOM      5  C   UNL     1       8.240  20.328  16.438 -0.21 -0.04    +0.235 C  
DOCKED: ATOM      6  O   UNL     1       9.016  19.510  15.994 -0.28 +0.04    -0.274 OA 
DOCKED: ENDROOT
DOCKED: BRANCH   1   8
DOCKED: ATOM      7  C   UNL     1       6.394  17.827  16.394 -0.27 -0.00    +0.038 C  
DOCKED: ATOM      8  C   UNL     1       6.888  18.616  17.616 -0.14 -0.02    +0.159 C  
DOCKED: BRANCH   8   9
DOCKED: ATOM      9  C   UNL     1       8.148  17.934  18.263 -0.12 -0.02    +0.236 C  
DOCKED: ATOM     10  O   UNL     1       8.470  16.786  17.941 -0.14 +0.00    -0.274 OA 
DOCKED: ATOM     11  N   UNL     1       8.841  18.588  19.282 -0.04 +0.03    -0.296 N  
DOCKED: ATOM     12  C   UNL     1       8.524  19.877  19.895 -0.03 -0.02    +0.136 C  
DOCKED: ATOM     13  C   UNL     1       9.569  20.918  19.480 -0.04 -0.03    +0.179 C  
DOCKED: ATOM     14  O   UNL     1      10.892  20.483  19.836 -0.03 +0.06    -0.377 OA 
DOCKED: ATOM     15  C   UNL     1      11.203  19.232  19.188 -0.05 -0.02    +0.179 C  
DOCKED: ATOM     16  C   UNL     1      10.202  18.145  19.612 -0.12 -0.01    +0.136 C  
DOCKED: ENDBRANCH   8   9
DOCKED: ENDBRANCH   1   8
DOCKED: BRANCH   4  17
DOCKED: ATOM     17  N   UNL     1       9.018  22.373  15.144 -0.19 +0.04    -0.178 NA 
DOCKED: ATOM     18  H   UNL     1       8.504  22.599  14.291 -0.41 -0.07    +0.149 HD 
DOCKED: BRANCH  17  19
DOCKED: ATOM     19  S   UNL     1      10.002  23.717  15.535 -0.52 -0.01    +0.059 S  
DOCKED: ATOM     20  O   UNL     1      10.410  24.271  14.259 -0.45 -0.02    -0.153 OA 
DOCKED: ATOM     21  O   UNL     1       9.265  24.523  16.497 -0.22 +0.07    -0.153 OA 
DOCKED: BRANCH  19  22
DOCKED: ATOM     22  C   UNL     1      11.444  23.041  16.300 -0.24 +0.00    +0.106 A  
DOCKED: ATOM     23  C   UNL     1      12.135  22.014  15.659 -0.35 +0.00    +0.029 A  
DOCKED: ATOM     24  C   UNL     1      13.174  21.366  16.332 -0.34 -0.00    +0.010 A  
DOCKED: ATOM     25  C   UNL     1      13.510  21.719  17.652 -0.29 +0.00    -0.016 A  
DOCKED: ATOM     26  C   UNL     1      14.505  21.030  18.364 -0.20 -0.00    +0.028 A  
DOCKED: ATOM     27  C   UNL     1      14.789  21.368  19.687 -0.16 -0.00    +0.042 A  
DOCKED: ATOM     28 CL   UNL     1      16.020  20.515  20.539 -0.19 -0.00    -0.084 Cl 
DOCKED: ATOM     29  C   UNL     1      14.087  22.383  20.327 -0.06 -0.00    +0.020 A  
DOCKED: ATOM     30  C   UNL     1      13.103  23.084  19.630 -0.06 -0.00    +0.010 A  
DOCKED: ATOM     31  C   UNL     1      12.818  22.777  18.289 -0.14 +0.00    -0.016 A  
DOCKED: ATOM     32  C   UNL     1      11.820  23.465  17.583 -0.16 -0.00    +0.037 A  
DOCKED: ENDBRANCH  19  22
DOCKED: ENDBRANCH  17  19
DOCKED: ENDBRANCH   4  17
DOCKED: TORSDOF 5
DOCKED: TER
DOCKED: ENDMDL
________________________________________________________________________________


    FINAL DOCKED STATE:
    ________________________


Run:   26 / 50
Time taken for this run:   0.000s

DOCKED: MODEL        26
DOCKED: USER    Run = 26
DOCKED: USER
DOCKED: USER    Estimated Free Energy of Binding    =  -5.07 kcal/mol  [=(1)+(2)+(3)-(4)]
DOCKED: USER
DOCKED: USER    (1) Final Intermolecular Energy     =  -6.56 kcal/mol
DOCKED: USER        vdW + Hbond + desolv Energy     =  -6.12 kcal/mol
DOCKED: USER        Electrostatic Energy            =  -0.44 kcal/mol
DOCKED: USER        Moving Ligand-Fixed Receptor    =  -6.56 kcal/mol
DOCKED: USER        Moving Ligand-Moving Receptor   =  +0.00 kcal/mol
DOCKED: USER    (2) Final Total Internal Energy     =  -1.84 kcal/mol
DOCKED: USER    (3) Torsional Free Energy           =  +1.49 kcal/mol
DOCKED: USER    (4) Unbound System's Energy         =  -1.84 kcal/mol
DOCKED: USER
DOCKED: USER
DOCKED: REMARK  Name = 
DOCKED: REMARK  6 active torsions:
DOCKED: REMARK  status: ('A' for Active; 'I' for Inactive)
DOCKED: REMARK    1  A    between atoms: C_1  and  C_2
DOCKED: REMARK    2  A    between atoms: C_2  and  C_3
DOCKED: REMARK    3  A    between atoms: C_2  and  N_11
DOCKED: REMARK    4  A    between atoms: C_14  and  N_15
DOCKED: REMARK    5  A    between atoms: N_15  and  S_16
DOCKED: REMARK    6  A    between atoms: S_16  and  C_19
DOCKED: REMARK                            x       y       z     vdW  Elec       q    Type
DOCKED: REMARK                         _______ _______ _______ _____ _____    ______ ____
DOCKED: USER                              x       y       z     vdW  Elec       q    Type
DOCKED: USER                           _______ _______ _______ _____ _____    ______ ____
DOCKED: ROOT
DOCKED: ATOM      1  N   UNL     1      20.912  30.303  12.239 -0.06 +0.08    -0.289 N  
DOCKED: ATOM      2  C   UNL     1      20.134  29.921  11.081 -0.25 -0.04    +0.110 C  
DOCKED: ATOM      3  C   UNL     1      18.716  30.407  11.407 -0.36 -0.04    +0.049 C  
DOCKED: ATOM      4  C   UNL     1      18.690  30.378  12.933 -0.20 -0.13    +0.164 C  
DOCKED: ATOM      5  C   UNL     1      20.090  30.865  13.197 -0.07 -0.09    +0.235 C  
DOCKED: ATOM      6  O   UNL     1      20.486  31.600  14.075 -0.01 +0.08    -0.274 OA 
DOCKED: ENDROOT
DOCKED: BRANCH   1   8
DOCKED: ATOM      7  C   UNL     1      23.123  29.469  12.942 -0.13 -0.01    +0.038 C  
DOCKED: ATOM      8  C   UNL     1      22.351  30.583  12.220 -0.10 -0.03    +0.159 C  
DOCKED: BRANCH   8   9
DOCKED: ATOM      9  C   UNL     1      22.875  30.777  10.750 -0.16 -0.04    +0.236 C  
DOCKED: ATOM     10  O   UNL     1      23.686  29.982  10.266 -0.18 +0.06    -0.274 OA 
DOCKED: ATOM     11  N   UNL     1      22.503  31.912  10.029 -0.08 +0.03    -0.296 N  
DOCKED: ATOM     12  C   UNL     1      21.676  33.030  10.482 -0.07 -0.02    +0.136 C  
DOCKED: ATOM     13  C   UNL     1      20.321  32.995   9.766 -0.12 -0.01    +0.179 C  
DOCKED: ATOM     14  O   UNL     1      20.498  33.024   8.340 -0.54 -0.20    -0.377 OA 
DOCKED: ATOM     15  C   UNL     1      21.280  31.891   7.906 -0.11 +0.08    +0.179 C  
DOCKED: ATOM     16  C   UNL     1      22.666  31.910   8.569 -0.28 +0.01    +0.136 C  
DOCKED: ENDBRANCH   8   9
DOCKED: ENDBRANCH   1   8
DOCKED: BRANCH   4  17
DOCKED: ATOM     17  N   UNL     1      17.585  31.122  13.546 -0.07 +0.20    -0.178 NA 
DOCKED: ATOM     18  H   UNL     1      16.700  31.131  13.038 -0.37 -0.39    +0.149 HD 
DOCKED: BRANCH  17  19
DOCKED: ATOM     19  S   UNL     1      17.250  30.721  15.175 -0.22 -0.02    +0.059 S  
DOCKED: ATOM     20  O   UNL     1      18.170  31.522  15.959 -0.03 +0.04    -0.153 OA 
DOCKED: ATOM     21  O   UNL     1      15.812  30.840  15.359 -0.48 +0.00    -0.153 OA 
DOCKED: BRANCH  19  22
DOCKED: ATOM     22  C   UNL     1      17.739  29.032  15.356 -0.18 -0.01    +0.106 A  
DOCKED: ATOM     23  C   UNL     1      16.768  28.069  15.628 -0.21 +0.01    +0.029 A  
DOCKED: ATOM     24  C   UNL     1      17.167  26.766  15.934 -0.29 +0.00    +0.010 A  
DOCKED: ATOM     25  C   UNL     1      18.531  26.423  16.000 -0.24 -0.00    -0.016 A  
DOCKED: ATOM     26  C   UNL     1      18.945  25.136  16.375 -0.22 -0.00    +0.028 A  
DOCKED: ATOM     27  C   UNL     1      20.303  24.833  16.477 -0.20 -0.01    +0.042 A  
DOCKED: ATOM     28 CL   UNL     1      20.790  23.243  16.930 -0.33 +0.01    -0.084 Cl 
DOCKED: ATOM     29  C   UNL     1      21.268  25.801  16.221 -0.13 -0.00    +0.020 A  
DOCKED: ATOM     30  C   UNL     1      20.871  27.082  15.837 -0.13 -0.00    +0.010 A  
DOCKED: ATOM     31  C   UNL     1      19.509  27.402  15.703 -0.16 +0.00    -0.016 A  
DOCKED: ATOM     32  C   UNL     1      19.100  28.690  15.333 -0.13 -0.01    +0.037 A  
DOCKED: ENDBRANCH  19  22
DOCKED: ENDBRANCH  17  19
DOCKED: ENDBRANCH   4  17
DOCKED: TORSDOF 5
DOCKED: TER
DOCKED: ENDMDL
________________________________________________________________________________


    FINAL DOCKED STATE:
    ________________________


Run:   27 / 50
Time taken for this run:   0.000s

DOCKED: MODEL        27
DOCKED: USER    Run = 27
DOCKED: USER
DOCKED: USER    Estimated Free Energy of Binding    =  -4.69 kcal/mol  [=(1)+(2)+(3)-(4)]
DOCKED: USER
DOCKED: USER    (1) Final Intermolecular Energy     =  -6.19 kcal/mol
DOCKED: USER        vdW + Hbond + desolv Energy     =  -6.12 kcal/mol
DOCKED: USER        Electrostatic Energy            =  -0.07 kcal/mol
DOCKED: USER        Moving Ligand-Fixed Receptor    =  -6.19 kcal/mol
DOCKED: USER        Moving Ligand-Moving Receptor   =  +0.00 kcal/mol
DOCKED: USER    (2) Final Total Internal Energy     =  -2.78 kcal/mol
DOCKED: USER    (3) Torsional Free Energy           =  +1.49 kcal/mol
DOCKED: USER    (4) Unbound System's Energy         =  -2.78 kcal/mol
DOCKED: USER
DOCKED: USER
DOCKED: REMARK  Name = 
DOCKED: REMARK  6 active torsions:
DOCKED: REMARK  status: ('A' for Active; 'I' for Inactive)
DOCKED: REMARK    1  A    between atoms: C_1  and  C_2
DOCKED: REMARK    2  A    between atoms: C_2  and  C_3
DOCKED: REMARK    3  A    between atoms: C_2  and  N_11
DOCKED: REMARK    4  A    between atoms: C_14  and  N_15
DOCKED: REMARK    5  A    between atoms: N_15  and  S_16
DOCKED: REMARK    6  A    between atoms: S_16  and  C_19
DOCKED: REMARK                            x       y       z     vdW  Elec       q    Type
DOCKED: REMARK                         _______ _______ _______ _____ _____    ______ ____
DOCKED: USER                              x       y       z     vdW  Elec       q    Type
DOCKED: USER                           _______ _______ _______ _____ _____    ______ ____
DOCKED: ROOT
DOCKED: ATOM      1  N   UNL     1       7.391  19.998  17.360 -0.07 +0.05    -0.289 N  
DOCKED: ATOM      2  C   UNL     1       6.336  20.987  17.331 -0.11 -0.02    +0.110 C  
DOCKED: ATOM      3  C   UNL     1       6.791  21.987  16.259 -0.28 -0.02    +0.049 C  
DOCKED: ATOM      4  C   UNL     1       8.311  21.853  16.294 -0.25 -0.04    +0.164 C  
DOCKED: ATOM      5  C   UNL     1       8.407  20.365  16.499 -0.21 -0.04    +0.235 C  
DOCKED: ATOM      6  O   UNL     1       9.210  19.585  16.036 -0.28 +0.04    -0.274 OA 
DOCKED: ENDROOT
DOCKED: BRANCH   1   8
DOCKED: ATOM      7  C   UNL     1       6.683  17.766  16.586 -0.25 -0.00    +0.038 C  
DOCKED: ATOM      8  C   UNL     1       7.210  18.600  17.763 -0.13 -0.02    +0.159 C  
DOCKED: BRANCH   8   9
DOCKED: ATOM      9  C   UNL     1       8.543  17.995  18.337 -0.12 -0.02    +0.236 C  
DOCKED: ATOM     10  O   UNL     1       8.954  16.902  17.939 -0.15 +0.01    -0.274 OA 
DOCKED: ATOM     11  N   UNL     1       9.206  18.647  19.377 -0.04 +0.04    -0.296 N  
DOCKED: ATOM     12  C   UNL     1       8.795  19.866  20.076 -0.03 -0.02    +0.136 C  
DOCKED: ATOM     13  C   UNL     1       9.734  21.018  19.699 -0.03 -0.03    +0.179 C  
DOCKED: ATOM     14  O   UNL     1      11.099  20.682  19.997 -0.02 +0.06    -0.377 OA 
DOCKED: ATOM     15  C   UNL     1      11.499  19.503  19.267 -0.06 -0.03    +0.179 C  
DOCKED: ATOM     16  C   UNL     1      10.609  18.308  19.647 -0.11 -0.02    +0.136 C  
DOCKED: ENDBRANCH   8   9
DOCKED: ENDBRANCH   1   8
DOCKED: BRANCH   4  17
DOCKED: ATOM     17  N   UNL     1       9.008  22.427  15.139 -0.21 +0.04    -0.178 NA 
DOCKED: ATOM     18  H   UNL     1       8.434  22.671  14.331 -0.40 -0.07    +0.149 HD 
DOCKED: BRANCH  17  19
DOCKED: ATOM     19  S   UNL     1      10.021  23.761  15.486 -0.52 -0.01    +0.059 S  
DOCKED: ATOM     20  O   UNL     1      10.432  24.271  14.192 -0.45 -0.02    -0.153 OA 
DOCKED: ATOM     21  O   UNL     1       9.306  24.608  16.429 -0.20 +0.07    -0.153 OA 
DOCKED: BRANCH  19  22
DOCKED: ATOM     22  C   UNL     1      11.454  23.078  16.262 -0.24 +0.00    +0.106 A  
DOCKED: ATOM     23  C   UNL     1      12.121  22.021  15.646 -0.35 +0.00    +0.029 A  
DOCKED: ATOM     24  C   UNL     1      13.151  21.371  16.331 -0.34 -0.00    +0.010 A  
DOCKED: ATOM     25  C   UNL     1      13.502  21.754  17.639 -0.29 +0.00    -0.016 A  
DOCKED: ATOM     26  C   UNL     1      14.486  21.065  18.364 -0.21 -0.00    +0.028 A  
DOCKED: ATOM     27  C   UNL     1      14.785  21.432  19.677 -0.15 -0.00    +0.042 A  
DOCKED: ATOM     28 CL   UNL     1      16.004  20.579  20.545 -0.18 -0.00    -0.084 Cl 
DOCKED: ATOM     29  C   UNL     1      14.106  22.478  20.292 -0.06 -0.00    +0.020 A  
DOCKED: ATOM     30  C   UNL     1      13.132  23.179  19.581 -0.06 -0.00    +0.010 A  
DOCKED: ATOM     31  C   UNL     1      12.833  22.841  18.250 -0.15 +0.00    -0.016 A  
DOCKED: ATOM     32  C   UNL     1      11.846  23.529  17.531 -0.16 -0.00    +0.037 A  
DOCKED: ENDBRANCH  19  22
DOCKED: ENDBRANCH  17  19
DOCKED: ENDBRANCH   4  17
DOCKED: TORSDOF 5
DOCKED: TER
DOCKED: ENDMDL
________________________________________________________________________________


    FINAL DOCKED STATE:
    ________________________


Run:   28 / 50
Time taken for this run:   0.000s

DOCKED: MODEL        28
DOCKED: USER    Run = 28
DOCKED: USER
DOCKED: USER    Estimated Free Energy of Binding    =  -4.25 kcal/mol  [=(1)+(2)+(3)-(4)]
DOCKED: USER
DOCKED: USER    (1) Final Intermolecular Energy     =  -5.74 kcal/mol
DOCKED: USER        vdW + Hbond + desolv Energy     =  -5.67 kcal/mol
DOCKED: USER        Electrostatic Energy            =  -0.07 kcal/mol
DOCKED: USER        Moving Ligand-Fixed Receptor    =  -5.74 kcal/mol
DOCKED: USER        Moving Ligand-Moving Receptor   =  +0.00 kcal/mol
DOCKED: USER    (2) Final Total Internal Energy     =  -2.34 kcal/mol
DOCKED: USER    (3) Torsional Free Energy           =  +1.49 kcal/mol
DOCKED: USER    (4) Unbound System's Energy         =  -2.34 kcal/mol
DOCKED: USER
DOCKED: USER
DOCKED: REMARK  Name = 
DOCKED: REMARK  6 active torsions:
DOCKED: REMARK  status: ('A' for Active; 'I' for Inactive)
DOCKED: REMARK    1  A    between atoms: C_1  and  C_2
DOCKED: REMARK    2  A    between atoms: C_2  and  C_3
DOCKED: REMARK    3  A    between atoms: C_2  and  N_11
DOCKED: REMARK    4  A    between atoms: C_14  and  N_15
DOCKED: REMARK    5  A    between atoms: N_15  and  S_16
DOCKED: REMARK    6  A    between atoms: S_16  and  C_19
DOCKED: REMARK                            x       y       z     vdW  Elec       q    Type
DOCKED: REMARK                         _______ _______ _______ _____ _____    ______ ____
DOCKED: USER                              x       y       z     vdW  Elec       q    Type
DOCKED: USER                           _______ _______ _______ _____ _____    ______ ____
DOCKED: ROOT
DOCKED: ATOM      1  N   UNL     1      18.670  25.393  18.315 -0.02 +0.03    -0.289 N  
DOCKED: ATOM      2  C   UNL     1      19.458  25.503  19.522 -0.02 -0.01    +0.110 C  
DOCKED: ATOM      3  C   UNL     1      19.394  24.099  20.139 -0.05 -0.01    +0.049 C  
DOCKED: ATOM      4  C   UNL     1      18.062  23.562  19.619 -0.08 -0.02    +0.164 C  
DOCKED: ATOM      5  C   UNL     1      18.111  24.133  18.227 -0.13 -0.03    +0.235 C  
DOCKED: ATOM      6  O   UNL     1      17.734  23.636  17.188 -0.27 +0.05    -0.274 OA 
DOCKED: ENDROOT
DOCKED: BRANCH   1   8
DOCKED: ATOM      7  C   UNL     1      19.568  25.421  16.019 -0.23 -0.01    +0.038 C  
DOCKED: ATOM      8  C   UNL     1      18.858  26.222  17.120 -0.12 -0.02    +0.159 C  
DOCKED: BRANCH   8   9
DOCKED: ATOM      9  C   UNL     1      17.490  26.804  16.608 -0.18 +0.01    +0.236 C  
DOCKED: ATOM     10  O   UNL     1      17.168  26.691  15.422 -0.73 -0.10    -0.274 OA 
DOCKED: ATOM     11  N   UNL     1      16.685  27.543  17.476 -0.06 -0.00    -0.296 N  
DOCKED: ATOM     12  C   UNL     1      16.966  27.907  18.865 -0.01 -0.01    +0.136 C  
DOCKED: ATOM     13  C   UNL     1      16.037  27.126  19.801 -0.00 -0.02    +0.179 C  
DOCKED: ATOM     14  O   UNL     1      14.659  27.364  19.468 -0.00 +0.03    -0.377 OA 
DOCKED: ATOM     15  C   UNL     1      14.391  26.960  18.109 -0.12 +0.01    +0.179 C  
DOCKED: ATOM     16  C   UNL     1      15.273  27.752  17.130 -0.10 +0.03    +0.136 C  
DOCKED: ENDBRANCH   8   9
DOCKED: ENDBRANCH   1   8
DOCKED: BRANCH   4  17
DOCKED: ATOM     17  N   UNL     1      17.887  22.112  19.753 +0.01 -0.00    -0.178 NA 
DOCKED: ATOM     18  H   UNL     1      18.612  21.607  20.265 +0.03 -0.00    +0.149 HD 
DOCKED: BRANCH  17  19
DOCKED: ATOM     19  S   UNL     1      16.369  21.614  20.364 -0.15 -0.00    +0.059 S  
DOCKED: ATOM     20  O   UNL     1      16.320  20.183  20.136 -0.65 -0.02    -0.153 OA 
DOCKED: ATOM     21  O   UNL     1      16.247  22.160  21.708 -0.03 +0.02    -0.153 OA 
DOCKED: BRANCH  19  22
DOCKED: ATOM     22  C   UNL     1      15.165  22.357  19.305 -0.13 -0.01    +0.106 A  
DOCKED: ATOM     23  C   UNL     1      14.552  23.545  19.701 -0.06 -0.00    +0.029 A  
DOCKED: ATOM     24  C   UNL     1      13.487  24.046  18.950 -0.09 -0.00    +0.010 A  
DOCKED: ATOM     25  C   UNL     1      13.011  23.355  17.820 -0.17 +0.00    -0.016 A  
DOCKED: ATOM     26  C   UNL     1      11.897  23.812  17.098 -0.20 +0.00    +0.028 A  
DOCKED: ATOM     27  C   UNL     1      11.415  23.085  16.008 -0.29 +0.00    +0.042 A  
DOCKED: ATOM     28 CL   UNL     1      10.052  23.669  15.130 -0.55 +0.00    -0.084 Cl 
DOCKED: ATOM     29  C   UNL     1      12.020  21.893  15.626 -0.37 +0.00    +0.020 A  
DOCKED: ATOM     30  C   UNL     1      13.134  21.432  16.328 -0.34 -0.00    +0.010 A  
DOCKED: ATOM     31  C   UNL     1      13.651  22.161  17.412 -0.30 +0.00    -0.016 A  
DOCKED: ATOM     32  C   UNL     1      14.761  21.699  18.134 -0.25 -0.01    +0.037 A  
DOCKED: ENDBRANCH  19  22
DOCKED: ENDBRANCH  17  19
DOCKED: ENDBRANCH   4  17
DOCKED: TORSDOF 5
DOCKED: TER
DOCKED: ENDMDL
________________________________________________________________________________


    FINAL DOCKED STATE:
    ________________________


Run:   29 / 50
Time taken for this run:   0.000s

DOCKED: MODEL        29
DOCKED: USER    Run = 29
DOCKED: USER
DOCKED: USER    Estimated Free Energy of Binding    =  -4.44 kcal/mol  [=(1)+(2)+(3)-(4)]
DOCKED: USER
DOCKED: USER    (1) Final Intermolecular Energy     =  -5.93 kcal/mol
DOCKED: USER        vdW + Hbond + desolv Energy     =  -5.72 kcal/mol
DOCKED: USER        Electrostatic Energy            =  -0.21 kcal/mol
DOCKED: USER        Moving Ligand-Fixed Receptor    =  -5.93 kcal/mol
DOCKED: USER        Moving Ligand-Moving Receptor   =  +0.00 kcal/mol
DOCKED: USER    (2) Final Total Internal Energy     =  -2.70 kcal/mol
DOCKED: USER    (3) Torsional Free Energy           =  +1.49 kcal/mol
DOCKED: USER    (4) Unbound System's Energy         =  -2.70 kcal/mol
DOCKED: USER
DOCKED: USER
DOCKED: REMARK  Name = 
DOCKED: REMARK  6 active torsions:
DOCKED: REMARK  status: ('A' for Active; 'I' for Inactive)
DOCKED: REMARK    1  A    between atoms: C_1  and  C_2
DOCKED: REMARK    2  A    between atoms: C_2  and  C_3
DOCKED: REMARK    3  A    between atoms: C_2  and  N_11
DOCKED: REMARK    4  A    between atoms: C_14  and  N_15
DOCKED: REMARK    5  A    between atoms: N_15  and  S_16
DOCKED: REMARK    6  A    between atoms: S_16  and  C_19
DOCKED: REMARK                            x       y       z     vdW  Elec       q    Type
DOCKED: REMARK                         _______ _______ _______ _____ _____    ______ ____
DOCKED: USER                              x       y       z     vdW  Elec       q    Type
DOCKED: USER                           _______ _______ _______ _____ _____    ______ ____
DOCKED: ROOT
DOCKED: ATOM      1  N   UNL     1       8.572  23.369  17.779 -0.07 +0.11    -0.289 N  
DOCKED: ATOM      2  C   UNL     1       8.329  22.375  18.801 -0.05 -0.03    +0.110 C  
DOCKED: ATOM      3  C   UNL     1       8.440  21.038  18.056 -0.10 -0.01    +0.049 C  
DOCKED: ATOM      4  C   UNL     1       8.049  21.413  16.628 -0.21 -0.04    +0.164 C  
DOCKED: ATOM      5  C   UNL     1       8.723  22.757  16.550 -0.21 -0.07    +0.235 C  
DOCKED: ATOM      6  O   UNL     1       9.294  23.267  15.611 -0.29 +0.06    -0.274 OA 
DOCKED: ENDROOT
DOCKED: BRANCH   1   8
DOCKED: ATOM      7  C   UNL     1       8.218  25.484  18.997 -0.12 -0.03    +0.038 C  
DOCKED: ATOM      8  C   UNL     1       9.122  24.704  18.031 -0.14 -0.09    +0.159 C  
DOCKED: BRANCH   8   9
DOCKED: ATOM      9  C   UNL     1      10.596  24.621  18.574 -0.08 -0.07    +0.236 C  
DOCKED: ATOM     10  O   UNL     1      11.091  23.530  18.872 -0.03 +0.06    -0.274 OA 
DOCKED: ATOM     11  N   UNL     1      11.309  25.795  18.819 -0.06 +0.09    -0.296 N  
DOCKED: ATOM     12  C   UNL     1      10.843  27.173  18.669 -0.12 -0.09    +0.136 C  
DOCKED: ATOM     13  C   UNL     1      11.548  27.830  17.477 -0.16 -0.02    +0.179 C  
DOCKED: ATOM     14  O   UNL     1      12.976  27.778  17.636 -0.13 -0.11    -0.377 OA 
DOCKED: ATOM     15  C   UNL     1      13.421  26.409  17.739 -0.12 +0.03    +0.179 C  
DOCKED: ATOM     16  C   UNL     1      12.770  25.723  18.951 -0.08 -0.01    +0.136 C  
DOCKED: ENDBRANCH   8   9
DOCKED: ENDBRANCH   1   8
DOCKED: BRANCH   4  17
DOCKED: ATOM     17  N   UNL     1       8.399  20.417  15.611 -0.26 +0.03    -0.178 NA 
DOCKED: ATOM     18  H   UNL     1       8.541  20.761  14.660 +0.05 -0.03    +0.149 HD 
DOCKED: BRANCH  17  19
DOCKED: ATOM     19  S   UNL     1       9.721  19.405  16.005 -0.51 -0.01    +0.059 S  
DOCKED: ATOM     20  O   UNL     1       9.282  18.639  17.155 -0.23 +0.02    -0.153 OA 
DOCKED: ATOM     21  O   UNL     1      10.132  18.739  14.778 -0.40 +0.03    -0.153 OA 
DOCKED: BRANCH  19  22
DOCKED: ATOM     22  C   UNL     1      11.002  20.491  16.554 -0.25 -0.01    +0.106 A  
DOCKED: ATOM     23  C   UNL     1      11.583  21.371  15.642 -0.35 -0.00    +0.029 A  
DOCKED: ATOM     24  C   UNL     1      12.703  22.112  16.028 -0.29 +0.00    +0.010 A  
DOCKED: ATOM     25  C   UNL     1      13.263  21.960  17.311 -0.30 +0.00    -0.016 A  
DOCKED: ATOM     26  C   UNL     1      14.429  22.646  17.687 -0.28 -0.00    +0.028 A  
DOCKED: ATOM     27  C   UNL     1      14.992  22.445  18.947 -0.17 -0.00    +0.042 A  
DOCKED: ATOM     28 CL   UNL     1      16.417  23.304  19.391 -0.18 +0.01    -0.084 Cl 
DOCKED: ATOM     29  C   UNL     1      14.417  21.554  19.847 -0.13 -0.00    +0.020 A  
DOCKED: ATOM     30  C   UNL     1      13.253  20.872  19.491 -0.14 -0.00    +0.010 A  
DOCKED: ATOM     31  C   UNL     1      12.655  21.080  18.237 -0.18 +0.00    -0.016 A  
DOCKED: ATOM     32  C   UNL     1      11.493  20.389  17.864 -0.14 -0.01    +0.037 A  
DOCKED: ENDBRANCH  19  22
DOCKED: ENDBRANCH  17  19
DOCKED: ENDBRANCH   4  17
DOCKED: TORSDOF 5
DOCKED: TER
DOCKED: ENDMDL
________________________________________________________________________________


    FINAL DOCKED STATE:
    ________________________


Run:   30 / 50
Time taken for this run:   0.000s

DOCKED: MODEL        30
DOCKED: USER    Run = 30
DOCKED: USER
DOCKED: USER    Estimated Free Energy of Binding    =  -3.93 kcal/mol  [=(1)+(2)+(3)-(4)]
DOCKED: USER
DOCKED: USER    (1) Final Intermolecular Energy     =  -5.43 kcal/mol
DOCKED: USER        vdW + Hbond + desolv Energy     =  -5.35 kcal/mol
DOCKED: USER        Electrostatic Energy            =  -0.08 kcal/mol
DOCKED: USER        Moving Ligand-Fixed Receptor    =  -5.43 kcal/mol
DOCKED: USER        Moving Ligand-Moving Receptor   =  +0.00 kcal/mol
DOCKED: USER    (2) Final Total Internal Energy     =  -3.04 kcal/mol
DOCKED: USER    (3) Torsional Free Energy           =  +1.49 kcal/mol
DOCKED: USER    (4) Unbound System's Energy         =  -3.04 kcal/mol
DOCKED: USER
DOCKED: USER
DOCKED: REMARK  Name = 
DOCKED: REMARK  6 active torsions:
DOCKED: REMARK  status: ('A' for Active; 'I' for Inactive)
DOCKED: REMARK    1  A    between atoms: C_1  and  C_2
DOCKED: REMARK    2  A    between atoms: C_2  and  C_3
DOCKED: REMARK    3  A    between atoms: C_2  and  N_11
DOCKED: REMARK    4  A    between atoms: C_14  and  N_15
DOCKED: REMARK    5  A    between atoms: N_15  and  S_16
DOCKED: REMARK    6  A    between atoms: S_16  and  C_19
DOCKED: REMARK                            x       y       z     vdW  Elec       q    Type
DOCKED: REMARK                         _______ _______ _______ _____ _____    ______ ____
DOCKED: USER                              x       y       z     vdW  Elec       q    Type
DOCKED: USER                           _______ _______ _______ _____ _____    ______ ____
DOCKED: ROOT
DOCKED: ATOM      1  N   UNL     1      11.094  21.875  19.847 -0.01 +0.05    -0.289 N  
DOCKED: ATOM      2  C   UNL     1      10.766  23.173  19.300 -0.04 -0.02    +0.110 C  
DOCKED: ATOM      3  C   UNL     1      11.467  23.191  17.935 -0.14 -0.01    +0.049 C  
DOCKED: ATOM      4  C   UNL     1      12.641  22.239  18.145 -0.15 -0.02    +0.164 C  
DOCKED: ATOM      5  C   UNL     1      11.951  21.206  18.996 -0.09 -0.04    +0.235 C  
DOCKED: ATOM      6  O   UNL     1      12.091  20.002  18.992 -0.10 +0.04    -0.274 OA 
DOCKED: ENDROOT
DOCKED: BRANCH   1   8
DOCKED: ATOM      7  C   UNL     1       9.419  22.125  21.640 -0.00 -0.01    +0.038 C  
DOCKED: ATOM      8  C   UNL     1      10.266  21.146  20.813 -0.02 -0.03    +0.159 C  
DOCKED: BRANCH   8   9
DOCKED: ATOM      9  C   UNL     1       9.364  20.076  20.098 -0.03 -0.04    +0.236 C  
DOCKED: ATOM     10  O   UNL     1       8.495  20.429  19.295 -0.02 +0.05    -0.274 OA 
DOCKED: ATOM     11  N   UNL     1       9.474  18.731  20.453 -0.02 +0.04    -0.296 N  
DOCKED: ATOM     12  C   UNL     1      10.334  18.144  21.480 -0.04 -0.02    +0.136 C  
DOCKED: ATOM     13  C   UNL     1      11.451  17.331  20.816 -0.09 -0.02    +0.179 C  
DOCKED: ATOM     14  O   UNL     1      10.902  16.318  19.956 -0.09 +0.02    -0.377 OA 
DOCKED: ATOM     15  C   UNL     1      10.092  16.919  18.924 -0.17 -0.01    +0.179 C  
DOCKED: ATOM     16  C   UNL     1       8.931  17.711  19.546 -0.09 -0.01    +0.136 C  
DOCKED: ENDBRANCH   8   9
DOCKED: ENDBRANCH   1   8
DOCKED: BRANCH   4  17
DOCKED: ATOM     17  N   UNL     1      13.292  21.780  16.914 -0.26 +0.02    -0.178 NA 
DOCKED: ATOM     18  H   UNL     1      13.788  20.889  16.961 +0.06 -0.03    +0.149 HD 
DOCKED: BRANCH  17  19
DOCKED: ATOM     19  S   UNL     1      12.292  21.752  15.527 -0.51 +0.00    +0.059 S  
DOCKED: ATOM     20  O   UNL     1      11.921  23.135  15.300 -0.33 -0.04    -0.153 OA 
DOCKED: ATOM     21  O   UNL     1      12.996  20.991  14.505 -0.47 +0.01    -0.153 OA 
DOCKED: BRANCH  19  22
DOCKED: ATOM     22  C   UNL     1      10.830  20.889  16.015 -0.29 -0.01    +0.106 A  
DOCKED: ATOM     23  C   UNL     1      10.880  19.505  16.177 -0.32 -0.00    +0.029 A  
DOCKED: ATOM     24  C   UNL     1       9.695  18.800  16.400 -0.24 -0.00    +0.010 A  
DOCKED: ATOM     25  C   UNL     1       8.454  19.465  16.437 -0.30 +0.00    -0.016 A  
DOCKED: ATOM     26  C   UNL     1       7.250  18.761  16.590 -0.23 -0.00    +0.028 A  
DOCKED: ATOM     27  C   UNL     1       6.029  19.437  16.577 -0.10 -0.00    +0.042 A  
DOCKED: ATOM     28 CL   UNL     1       4.564  18.554  16.778 -0.24 +0.01    -0.084 Cl 
DOCKED: ATOM     29  C   UNL     1       5.984  20.815  16.400 -0.18 -0.00    +0.020 A  
DOCKED: ATOM     30  C   UNL     1       7.173  21.530  16.256 -0.26 -0.00    +0.010 A  
DOCKED: ATOM     31  C   UNL     1       8.414  20.872  16.292 -0.28 +0.00    -0.016 A  
DOCKED: ATOM     32  C   UNL     1       9.614  21.579  16.133 -0.27 -0.01    +0.037 A  
DOCKED: ENDBRANCH  19  22
DOCKED: ENDBRANCH  17  19
DOCKED: ENDBRANCH   4  17
DOCKED: TORSDOF 5
DOCKED: TER
DOCKED: ENDMDL
________________________________________________________________________________


    FINAL DOCKED STATE:
    ________________________


Run:   31 / 50
Time taken for this run:   0.000s

DOCKED: MODEL        31
DOCKED: USER    Run = 31
DOCKED: USER
DOCKED: USER    Estimated Free Energy of Binding    =  -4.48 kcal/mol  [=(1)+(2)+(3)-(4)]
DOCKED: USER
DOCKED: USER    (1) Final Intermolecular Energy     =  -5.97 kcal/mol
DOCKED: USER        vdW + Hbond + desolv Energy     =  -5.97 kcal/mol
DOCKED: USER        Electrostatic Energy            =  +0.00 kcal/mol
DOCKED: USER        Moving Ligand-Fixed Receptor    =  -5.97 kcal/mol
DOCKED: USER        Moving Ligand-Moving Receptor   =  +0.00 kcal/mol
DOCKED: USER    (2) Final Total Internal Energy     =  -2.50 kcal/mol
DOCKED: USER    (3) Torsional Free Energy           =  +1.49 kcal/mol
DOCKED: USER    (4) Unbound System's Energy         =  -2.50 kcal/mol
DOCKED: USER
DOCKED: USER
DOCKED: REMARK  Name = 
DOCKED: REMARK  6 active torsions:
DOCKED: REMARK  status: ('A' for Active; 'I' for Inactive)
DOCKED: REMARK    1  A    between atoms: C_1  and  C_2
DOCKED: REMARK    2  A    between atoms: C_2  and  C_3
DOCKED: REMARK    3  A    between atoms: C_2  and  N_11
DOCKED: REMARK    4  A    between atoms: C_14  and  N_15
DOCKED: REMARK    5  A    between atoms: N_15  and  S_16
DOCKED: REMARK    6  A    between atoms: S_16  and  C_19
DOCKED: REMARK                            x       y       z     vdW  Elec       q    Type
DOCKED: REMARK                         _______ _______ _______ _____ _____    ______ ____
DOCKED: USER                              x       y       z     vdW  Elec       q    Type
DOCKED: USER                           _______ _______ _______ _____ _____    ______ ____
DOCKED: ROOT
DOCKED: ATOM      1  N   UNL     1       7.169  19.428  18.498 -0.02 +0.04    -0.289 N  
DOCKED: ATOM      2  C   UNL     1       7.962  20.480  19.094 -0.04 -0.02    +0.110 C  
DOCKED: ATOM      3  C   UNL     1       9.314  20.382  18.376 -0.11 -0.01    +0.049 C  
DOCKED: ATOM      4  C   UNL     1       9.379  18.910  17.975 -0.16 -0.02    +0.164 C  
DOCKED: ATOM      5  C   UNL     1       7.935  18.710  17.600 -0.14 -0.02    +0.235 C  
DOCKED: ATOM      6  O   UNL     1       7.469  18.044  16.701 -0.17 +0.01    -0.274 OA 
DOCKED: ENDROOT
DOCKED: BRANCH   1   8
DOCKED: ATOM      7  C   UNL     1       5.090  18.589  19.525 -0.03 -0.00    +0.038 C  
DOCKED: ATOM      8  C   UNL     1       5.706  19.439  18.404 -0.04 -0.02    +0.159 C  
DOCKED: BRANCH   8   9
DOCKED: ATOM      9  C   UNL     1       5.144  20.907  18.428 -0.02 -0.05    +0.236 C  
DOCKED: ATOM     10  O   UNL     1       4.485  21.307  19.393 -0.00 +0.06    -0.274 OA 
DOCKED: ATOM     11  N   UNL     1       5.302  21.726  17.310 -0.03 +0.08    -0.296 N  
DOCKED: ATOM     12  C   UNL     1       5.920  21.383  16.029 -0.21 -0.04    +0.136 C  
DOCKED: ATOM     13  C   UNL     1       7.253  22.125  15.883 -0.23 -0.07    +0.179 C  
DOCKED: ATOM     14  O   UNL     1       7.062  23.545  16.005 -0.18 +0.20    -0.377 OA 
DOCKED: ATOM     15  C   UNL     1       6.492  23.868  17.291 -0.17 -0.11    +0.179 C  
DOCKED: ATOM     16  C   UNL     1       5.130  23.177  17.463 -0.10 -0.06    +0.136 C  
DOCKED: ENDBRANCH   8   9
DOCKED: ENDBRANCH   1   8
DOCKED: BRANCH   4  17
DOCKED: ATOM     17  N   UNL     1      10.394  18.589  16.967 -0.19 +0.02    -0.178 NA 
DOCKED: ATOM     18  H   UNL     1      10.467  17.611  16.683 -0.01 -0.02    +0.149 HD 
DOCKED: BRANCH  17  19
DOCKED: ATOM     19  S   UNL     1      10.342  19.544  15.548 -0.55 -0.01    +0.059 S  
DOCKED: ATOM     20  O   UNL     1      11.186  18.852  14.594 -0.53 +0.03    -0.153 OA 
DOCKED: ATOM     21  O   UNL     1       8.940  19.801  15.256 -0.36 +0.02    -0.153 OA 
DOCKED: BRANCH  19  22
DOCKED: ATOM     22  C   UNL     1      11.153  21.057  15.966 -0.29 -0.01    +0.106 A  
DOCKED: ATOM     23  C   UNL     1      12.468  21.018  16.429 -0.26 -0.00    +0.029 A  
DOCKED: ATOM     24  C   UNL     1      13.056  22.188  16.915 -0.31 -0.00    +0.010 A  
DOCKED: ATOM     25  C   UNL     1      12.330  23.393  16.968 -0.20 -0.00    -0.016 A  
DOCKED: ATOM     26  C   UNL     1      12.886  24.559  17.519 -0.14 +0.00    +0.028 A  
DOCKED: ATOM     27  C   UNL     1      12.132  25.729  17.604 -0.18 +0.00    +0.042 A  
DOCKED: ATOM     28 CL   UNL     1      12.837  27.151  18.274 -0.23 -0.00    -0.084 Cl 
DOCKED: ATOM     29  C   UNL     1      10.816  25.759  17.156 -0.23 -0.00    +0.020 A  
DOCKED: ATOM     30  C   UNL     1      10.253  24.612  16.597 -0.26 -0.00    +0.010 A  
DOCKED: ATOM     31  C   UNL     1      11.003  23.430  16.479 -0.28 +0.00    -0.016 A  
DOCKED: ATOM     32  C   UNL     1      10.442  22.266  15.933 -0.29 -0.00    +0.037 A  
DOCKED: ENDBRANCH  19  22
DOCKED: ENDBRANCH  17  19
DOCKED: ENDBRANCH   4  17
DOCKED: TORSDOF 5
DOCKED: TER
DOCKED: ENDMDL
________________________________________________________________________________


    FINAL DOCKED STATE:
    ________________________


Run:   32 / 50
Time taken for this run:   0.000s

DOCKED: MODEL        32
DOCKED: USER    Run = 32
DOCKED: USER
DOCKED: USER    Estimated Free Energy of Binding    =  -4.83 kcal/mol  [=(1)+(2)+(3)-(4)]
DOCKED: USER
DOCKED: USER    (1) Final Intermolecular Energy     =  -6.32 kcal/mol
DOCKED: USER        vdW + Hbond + desolv Energy     =  -6.01 kcal/mol
DOCKED: USER        Electrostatic Energy            =  -0.31 kcal/mol
DOCKED: USER        Moving Ligand-Fixed Receptor    =  -6.32 kcal/mol
DOCKED: USER        Moving Ligand-Moving Receptor   =  +0.00 kcal/mol
DOCKED: USER    (2) Final Total Internal Energy     =  -2.19 kcal/mol
DOCKED: USER    (3) Torsional Free Energy           =  +1.49 kcal/mol
DOCKED: USER    (4) Unbound System's Energy         =  -2.19 kcal/mol
DOCKED: USER
DOCKED: USER
DOCKED: REMARK  Name = 
DOCKED: REMARK  6 active torsions:
DOCKED: REMARK  status: ('A' for Active; 'I' for Inactive)
DOCKED: REMARK    1  A    between atoms: C_1  and  C_2
DOCKED: REMARK    2  A    between atoms: C_2  and  C_3
DOCKED: REMARK    3  A    between atoms: C_2  and  N_11
DOCKED: REMARK    4  A    between atoms: C_14  and  N_15
DOCKED: REMARK    5  A    between atoms: N_15  and  S_16
DOCKED: REMARK    6  A    between atoms: S_16  and  C_19
DOCKED: REMARK                            x       y       z     vdW  Elec       q    Type
DOCKED: REMARK                         _______ _______ _______ _____ _____    ______ ____
DOCKED: USER                              x       y       z     vdW  Elec       q    Type
DOCKED: USER                           _______ _______ _______ _____ _____    ______ ____
DOCKED: ROOT
DOCKED: ATOM      1  N   UNL     1      10.128  23.953  17.775 -0.07 +0.08    -0.289 N  
DOCKED: ATOM      2  C   UNL     1       9.459  24.625  18.867 -0.10 -0.05    +0.110 C  
DOCKED: ATOM      3  C   UNL     1       9.650  26.116  18.561 -0.08 -0.04    +0.049 C  
DOCKED: ATOM      4  C   UNL     1      10.947  26.134  17.755 -0.19 -0.06    +0.164 C  
DOCKED: ATOM      5  C   UNL     1      10.734  24.880  16.949 -0.20 -0.04    +0.235 C  
DOCKED: ATOM      6  O   UNL     1      11.028  24.660  15.794 -0.19 -0.05    -0.274 OA 
DOCKED: ENDROOT
DOCKED: BRANCH   1   8
DOCKED: ATOM      7  C   UNL     1       8.751  22.708  16.151 -0.34 -0.01    +0.038 C  
DOCKED: ATOM      8  C   UNL     1       9.784  22.615  17.285 -0.14 -0.03    +0.159 C  
DOCKED: BRANCH   8   9
DOCKED: ATOM      9  C   UNL     1      11.065  21.829  16.824 -0.18 -0.03    +0.236 C  
DOCKED: ATOM     10  O   UNL     1      11.061  21.196  15.764 -0.24 +0.02    -0.274 OA 
DOCKED: ATOM     11  N   UNL     1      12.175  21.761  17.667 -0.09 +0.04    -0.296 N  
DOCKED: ATOM     12  C   UNL     1      12.312  22.318  19.012 -0.08 -0.02    +0.136 C  
DOCKED: ATOM     13  C   UNL     1      13.289  23.499  18.986 -0.07 -0.02    +0.179 C  
DOCKED: ATOM     14  O   UNL     1      14.563  23.094  18.458 -0.08 +0.04    -0.377 OA 
DOCKED: ATOM     15  C   UNL     1      14.414  22.587  17.115 -0.23 -0.01    +0.179 C  
DOCKED: ATOM     16  C   UNL     1      13.473  21.372  17.101 -0.24 -0.02    +0.136 C  
DOCKED: ENDBRANCH   8   9
DOCKED: ENDBRANCH   1   8
DOCKED: BRANCH   4  17
DOCKED: ATOM     17  N   UNL     1      11.202  27.378  17.022 -0.55 +0.02    -0.178 NA 
DOCKED: ATOM     18  H   UNL     1      10.410  27.792  16.530 -0.37 -0.20    +0.149 HD 
DOCKED: BRANCH  17  19
DOCKED: ATOM     19  S   UNL     1      11.962  28.614  17.928 -0.24 -0.00    +0.059 S  
DOCKED: ATOM     20  O   UNL     1      11.683  29.839  17.203 -0.60 -0.01    -0.153 OA 
DOCKED: ATOM     21  O   UNL     1      11.542  28.453  19.311 -0.07 +0.06    -0.153 OA 
DOCKED: BRANCH  19  22
DOCKED: ATOM     22  C   UNL     1      13.697  28.305  17.789 -0.01 +0.02    +0.106 A  
DOCKED: ATOM     23  C   UNL     1      14.573  29.384  17.690 -0.05 +0.00    +0.029 A  
DOCKED: ATOM     24  C   UNL     1      15.922  29.146  17.415 -0.11 +0.00    +0.010 A  
DOCKED: ATOM     25  C   UNL     1      16.397  27.836  17.210 -0.15 -0.00    -0.016 A  
DOCKED: ATOM     26  C   UNL     1      17.734  27.588  16.864 -0.14 -0.00    +0.028 A  
DOCKED: ATOM     27  C   UNL     1      18.172  26.286  16.621 -0.21 -0.00    +0.042 A  
DOCKED: ATOM     28 CL   UNL     1      19.820  26.003  16.207 -0.28 +0.01    -0.084 Cl 
DOCKED: ATOM     29  C   UNL     1      17.289  25.214  16.705 -0.29 -0.00    +0.020 A  
DOCKED: ATOM     30  C   UNL     1      15.959  25.444  17.058 -0.11 +0.00    +0.010 A  
DOCKED: ATOM     31  C   UNL     1      15.504  26.745  17.332 -0.18 -0.00    -0.016 A  
DOCKED: ATOM     32  C   UNL     1      14.166  26.988  17.672 -0.14 +0.01    +0.037 A  
DOCKED: ENDBRANCH  19  22
DOCKED: ENDBRANCH  17  19
DOCKED: ENDBRANCH   4  17
DOCKED: TORSDOF 5
DOCKED: TER
DOCKED: ENDMDL
________________________________________________________________________________


    FINAL DOCKED STATE:
    ________________________


Run:   33 / 50
Time taken for this run:   0.000s

DOCKED: MODEL        33
DOCKED: USER    Run = 33
DOCKED: USER
DOCKED: USER    Estimated Free Energy of Binding    =  -4.59 kcal/mol  [=(1)+(2)+(3)-(4)]
DOCKED: USER
DOCKED: USER    (1) Final Intermolecular Energy     =  -6.08 kcal/mol
DOCKED: USER        vdW + Hbond + desolv Energy     =  -6.06 kcal/mol
DOCKED: USER        Electrostatic Energy            =  -0.02 kcal/mol
DOCKED: USER        Moving Ligand-Fixed Receptor    =  -6.08 kcal/mol
DOCKED: USER        Moving Ligand-Moving Receptor   =  +0.00 kcal/mol
DOCKED: USER    (2) Final Total Internal Energy     =  -2.22 kcal/mol
DOCKED: USER    (3) Torsional Free Energy           =  +1.49 kcal/mol
DOCKED: USER    (4) Unbound System's Energy         =  -2.22 kcal/mol
DOCKED: USER
DOCKED: USER
DOCKED: REMARK  Name = 
DOCKED: REMARK  6 active torsions:
DOCKED: REMARK  status: ('A' for Active; 'I' for Inactive)
DOCKED: REMARK    1  A    between atoms: C_1  and  C_2
DOCKED: REMARK    2  A    between atoms: C_2  and  C_3
DOCKED: REMARK    3  A    between atoms: C_2  and  N_11
DOCKED: REMARK    4  A    between atoms: C_14  and  N_15
DOCKED: REMARK    5  A    between atoms: N_15  and  S_16
DOCKED: REMARK    6  A    between atoms: S_16  and  C_19
DOCKED: REMARK                            x       y       z     vdW  Elec       q    Type
DOCKED: REMARK                         _______ _______ _______ _____ _____    ______ ____
DOCKED: USER                              x       y       z     vdW  Elec       q    Type
DOCKED: USER                           _______ _______ _______ _____ _____    ______ ____
DOCKED: ROOT
DOCKED: ATOM      1  N   UNL     1      11.226  21.529  16.354 -0.16 +0.03    -0.289 N  
DOCKED: ATOM      2  C   UNL     1      11.978  21.411  15.124 -0.18 +0.00    +0.110 C  
DOCKED: ATOM      3  C   UNL     1      13.380  20.989  15.583 -0.22 -0.01    +0.049 C  
DOCKED: ATOM      4  C   UNL     1      13.466  21.571  16.991 -0.27 -0.02    +0.164 C  
DOCKED: ATOM      5  C   UNL     1      12.053  21.305  17.437 -0.17 -0.03    +0.235 C  
DOCKED: ATOM      6  O   UNL     1      11.652  20.969  18.530 -0.09 +0.04    -0.274 OA 
DOCKED: ENDROOT
DOCKED: BRANCH   1   8
DOCKED: ATOM      7  C   UNL     1       9.438  19.923  16.908 -0.29 -0.01    +0.038 C  
DOCKED: ATOM      8  C   UNL     1       9.774  21.354  16.461 -0.23 -0.02    +0.159 C  
DOCKED: BRANCH   8   9
DOCKED: ATOM      9  C   UNL     1       9.142  22.416  17.433 -0.10 -0.06    +0.236 C  
DOCKED: ATOM     10  O   UNL     1       8.336  22.067  18.300 -0.03 +0.07    -0.274 OA 
DOCKED: ATOM     11  N   UNL     1       9.414  23.772  17.246 -0.11 +0.10    -0.296 N  
DOCKED: ATOM     12  C   UNL     1      10.221  24.386  16.191 -0.28 -0.02    +0.136 C  
DOCKED: ATOM     13  C   UNL     1      11.523  24.932  16.788 -0.15 +0.02    +0.179 C  
DOCKED: ATOM     14  O   UNL     1      11.247  25.867  17.844 -0.16 +0.08    -0.377 OA 
DOCKED: ATOM     15  C   UNL     1      10.488  25.233  18.894 -0.09 -0.07    +0.179 C  
DOCKED: ATOM     16  C   UNL     1       9.150  24.707  18.347 -0.13 -0.08    +0.136 C  
DOCKED: ENDBRANCH   8   9
DOCKED: ENDBRANCH   1   8
DOCKED: BRANCH   4  17
DOCKED: ATOM     17  N   UNL     1      14.552  21.035  17.817 -0.19 +0.04    -0.178 NA 
DOCKED: ATOM     18  H   UNL     1      15.428  20.819  17.340 -0.27 -0.10    +0.149 HD 
DOCKED: BRANCH  17  19
DOCKED: ATOM     19  S   UNL     1      14.926  21.947  19.214 -0.24 -0.01    +0.059 S  
DOCKED: ATOM     20  O   UNL     1      13.676  22.057  19.941 -0.06 +0.02    -0.153 OA 
DOCKED: ATOM     21  O   UNL     1      16.095  21.334  19.827 -0.31 -0.01    -0.153 OA 
DOCKED: BRANCH  19  22
DOCKED: ATOM     22  C   UNL     1      15.336  23.563  18.628 -0.14 -0.01    +0.106 A  
DOCKED: ATOM     23  C   UNL     1      14.370  24.567  18.673 -0.10 -0.00    +0.029 A  
DOCKED: ATOM     24  C   UNL     1      14.633  25.796  18.063 -0.14 +0.00    +0.010 A  
DOCKED: ATOM     25  C   UNL     1      15.845  26.020  17.382 -0.18 -0.00    -0.016 A  
DOCKED: ATOM     26  C   UNL     1      16.093  27.224  16.705 -0.21 +0.00    +0.028 A  
DOCKED: ATOM     27  C   UNL     1      17.283  27.406  15.999 -0.25 +0.01    +0.042 A  
DOCKED: ATOM     28 CL   UNL     1      17.571  28.895  15.183 -0.34 +0.01    -0.084 Cl 
DOCKED: ATOM     29  C   UNL     1      18.236  26.395  15.944 -0.23 +0.00    +0.020 A  
DOCKED: ATOM     30  C   UNL     1      18.008  25.197  16.620 -0.28 -0.00    +0.010 A  
DOCKED: ATOM     31  C   UNL     1      16.829  25.003  17.358 -0.24 +0.00    -0.016 A  
DOCKED: ATOM     32  C   UNL     1      16.583  23.796  18.029 -0.22 -0.00    +0.037 A  
DOCKED: ENDBRANCH  19  22
DOCKED: ENDBRANCH  17  19
DOCKED: ENDBRANCH   4  17
DOCKED: TORSDOF 5
DOCKED: TER
DOCKED: ENDMDL
________________________________________________________________________________


    FINAL DOCKED STATE:
    ________________________


Run:   34 / 50
Time taken for this run:   0.000s

DOCKED: MODEL        34
DOCKED: USER    Run = 34
DOCKED: USER
DOCKED: USER    Estimated Free Energy of Binding    =  -5.60 kcal/mol  [=(1)+(2)+(3)-(4)]
DOCKED: USER
DOCKED: USER    (1) Final Intermolecular Energy     =  -7.09 kcal/mol
DOCKED: USER        vdW + Hbond + desolv Energy     =  -7.13 kcal/mol
DOCKED: USER        Electrostatic Energy            =  +0.04 kcal/mol
DOCKED: USER        Moving Ligand-Fixed Receptor    =  -7.09 kcal/mol
DOCKED: USER        Moving Ligand-Moving Receptor   =  +0.00 kcal/mol
DOCKED: USER    (2) Final Total Internal Energy     =  -1.94 kcal/mol
DOCKED: USER    (3) Torsional Free Energy           =  +1.49 kcal/mol
DOCKED: USER    (4) Unbound System's Energy         =  -1.94 kcal/mol
DOCKED: USER
DOCKED: USER
DOCKED: REMARK  Name = 
DOCKED: REMARK  6 active torsions:
DOCKED: REMARK  status: ('A' for Active; 'I' for Inactive)
DOCKED: REMARK    1  A    between atoms: C_1  and  C_2
DOCKED: REMARK    2  A    between atoms: C_2  and  C_3
DOCKED: REMARK    3  A    between atoms: C_2  and  N_11
DOCKED: REMARK    4  A    between atoms: C_14  and  N_15
DOCKED: REMARK    5  A    between atoms: N_15  and  S_16
DOCKED: REMARK    6  A    between atoms: S_16  and  C_19
DOCKED: REMARK                            x       y       z     vdW  Elec       q    Type
DOCKED: REMARK                         _______ _______ _______ _____ _____    ______ ____
DOCKED: USER                              x       y       z     vdW  Elec       q    Type
DOCKED: USER                           _______ _______ _______ _____ _____    ______ ____
DOCKED: ROOT
DOCKED: ATOM      1  N   UNL     1      11.625  20.827  16.649 -0.16 +0.04    -0.289 N  
DOCKED: ATOM      2  C   UNL     1      11.425  21.251  18.017 -0.15 -0.02    +0.110 C  
DOCKED: ATOM      3  C   UNL     1      12.710  22.013  18.363 -0.18 -0.01    +0.049 C  
DOCKED: ATOM      4  C   UNL     1      13.745  21.367  17.446 -0.22 -0.03    +0.164 C  
DOCKED: ATOM      5  C   UNL     1      12.888  21.187  16.221 -0.19 -0.03    +0.235 C  
DOCKED: ATOM      6  O   UNL     1      13.194  21.308  15.055 -0.32 +0.01    -0.274 OA 
DOCKED: ENDROOT
DOCKED: BRANCH   1   8
DOCKED: ATOM      7  C   UNL     1      10.195  19.081  15.653 -0.43 -0.01    +0.038 C  
DOCKED: ATOM      8  C   UNL     1      10.545  20.577  15.689 -0.25 -0.02    +0.159 C  
DOCKED: BRANCH   8   9
DOCKED: ATOM      9  C   UNL     1       9.279  21.450  16.014 -0.24 -0.04    +0.236 C  
DOCKED: ATOM     10  O   UNL     1       8.214  20.911  16.330 -0.19 +0.06    -0.274 OA 
DOCKED: ATOM     11  N   UNL     1       9.330  22.833  15.842 -0.21 +0.06    -0.296 N  
DOCKED: ATOM     12  C   UNL     1      10.448  23.631  15.338 -0.38 +0.00    +0.136 C  
DOCKED: ATOM     13  C   UNL     1      11.047  24.461  16.480 -0.22 +0.00    +0.179 C  
DOCKED: ATOM     14  O   UNL     1      10.044  25.293  17.085 -0.16 +0.18    -0.377 OA 
DOCKED: ATOM     15  C   UNL     1       8.971  24.487  17.614 -0.15 -0.10    +0.179 C  
DOCKED: ATOM     16  C   UNL     1       8.312  23.668  16.492 -0.23 -0.06    +0.136 C  
DOCKED: ENDBRANCH   8   9
DOCKED: ENDBRANCH   1   8
DOCKED: BRANCH   4  17
DOCKED: ATOM     17  N   UNL     1      14.995  22.120  17.297 -0.28 +0.04    -0.178 NA 
DOCKED: ATOM     18  H   UNL     1      15.357  22.226  16.348 -0.19 -0.03    +0.149 HD 
DOCKED: BRANCH  17  19
DOCKED: ATOM     19  S   UNL     1      15.011  23.660  18.040 -0.28 -0.00    +0.059 S  
DOCKED: ATOM     20  O   UNL     1      13.901  24.380  17.444 -0.14 -0.01    -0.153 OA 
DOCKED: ATOM     21  O   UNL     1      15.074  23.443  19.477 -0.07 +0.02    -0.153 OA 
DOCKED: BRANCH  19  22
DOCKED: ATOM     22  C   UNL     1      16.498  24.437  17.486 -0.22 -0.01    +0.106 A  
DOCKED: ATOM     23  C   UNL     1      16.430  25.709  16.919 -0.23 +0.00    +0.029 A  
DOCKED: ATOM     24  C   UNL     1      17.573  26.257  16.332 -0.29 +0.00    +0.010 A  
DOCKED: ATOM     25  C   UNL     1      18.779  25.531  16.282 -0.24 +0.00    -0.016 A  
DOCKED: ATOM     26  C   UNL     1      19.914  26.041  15.634 -0.17 -0.00    +0.028 A  
DOCKED: ATOM     27  C   UNL     1      21.084  25.285  15.558 -0.20 -0.01    +0.042 A  
DOCKED: ATOM     28 CL   UNL     1      22.469  25.934  14.765 -0.24 +0.02    -0.084 Cl 
DOCKED: ATOM     29  C   UNL     1      21.142  24.010  16.111 -0.24 -0.01    +0.020 A  
DOCKED: ATOM     30  C   UNL     1      20.025  23.494  16.768 -0.20 -0.00    +0.010 A  
DOCKED: ATOM     31  C   UNL     1      18.845  24.249  16.878 -0.23 +0.00    -0.016 A  
DOCKED: ATOM     32  C   UNL     1      17.712  23.734  17.523 -0.23 -0.01    +0.037 A  
DOCKED: ENDBRANCH  19  22
DOCKED: ENDBRANCH  17  19
DOCKED: ENDBRANCH   4  17
DOCKED: TORSDOF 5
DOCKED: TER
DOCKED: ENDMDL
________________________________________________________________________________


    FINAL DOCKED STATE:
    ________________________


Run:   35 / 50
Time taken for this run:   0.000s

DOCKED: MODEL        35
DOCKED: USER    Run = 35
DOCKED: USER
DOCKED: USER    Estimated Free Energy of Binding    =  -4.77 kcal/mol  [=(1)+(2)+(3)-(4)]
DOCKED: USER
DOCKED: USER    (1) Final Intermolecular Energy     =  -6.26 kcal/mol
DOCKED: USER        vdW + Hbond + desolv Energy     =  -5.83 kcal/mol
DOCKED: USER        Electrostatic Energy            =  -0.43 kcal/mol
DOCKED: USER        Moving Ligand-Fixed Receptor    =  -6.26 kcal/mol
DOCKED: USER        Moving Ligand-Moving Receptor   =  +0.00 kcal/mol
DOCKED: USER    (2) Final Total Internal Energy     =  -2.37 kcal/mol
DOCKED: USER    (3) Torsional Free Energy           =  +1.49 kcal/mol
DOCKED: USER    (4) Unbound System's Energy         =  -2.37 kcal/mol
DOCKED: USER
DOCKED: USER
DOCKED: REMARK  Name = 
DOCKED: REMARK  6 active torsions:
DOCKED: REMARK  status: ('A' for Active; 'I' for Inactive)
DOCKED: REMARK    1  A    between atoms: C_1  and  C_2
DOCKED: REMARK    2  A    between atoms: C_2  and  C_3
DOCKED: REMARK    3  A    between atoms: C_2  and  N_11
DOCKED: REMARK    4  A    between atoms: C_14  and  N_15
DOCKED: REMARK    5  A    between atoms: N_15  and  S_16
DOCKED: REMARK    6  A    between atoms: S_16  and  C_19
DOCKED: REMARK                            x       y       z     vdW  Elec       q    Type
DOCKED: REMARK                         _______ _______ _______ _____ _____    ______ ____
DOCKED: USER                              x       y       z     vdW  Elec       q    Type
DOCKED: USER                           _______ _______ _______ _____ _____    ______ ____
DOCKED: ROOT
DOCKED: ATOM      1  N   UNL     1      10.342  23.781  17.620 -0.07 +0.07    -0.289 N  
DOCKED: ATOM      2  C   UNL     1       9.548  23.989  18.811 -0.08 -0.04    +0.110 C  
DOCKED: ATOM      3  C   UNL     1       9.498  25.514  18.965 -0.13 -0.03    +0.049 C  
DOCKED: ATOM      4  C   UNL     1      10.791  25.966  18.290 -0.15 -0.07    +0.164 C  
DOCKED: ATOM      5  C   UNL     1      10.805  24.991  17.142 -0.20 -0.04    +0.235 C  
DOCKED: ATOM      6  O   UNL     1      11.157  25.172  15.997 -0.22 -0.09    -0.274 OA 
DOCKED: ENDROOT
DOCKED: BRANCH   1   8
DOCKED: ATOM      7  C   UNL     1       9.184  22.862  15.646 -0.40 -0.01    +0.038 C  
DOCKED: ATOM      8  C   UNL     1      10.233  22.613  16.740 -0.20 -0.03    +0.159 C  
DOCKED: BRANCH   8   9
DOCKED: ATOM      9  C   UNL     1      11.627  22.236  16.118 -0.25 -0.00    +0.236 C  
DOCKED: ATOM     10  O   UNL     1      11.876  22.503  14.938 -0.26 -0.06    -0.274 OA 
DOCKED: ATOM     11  N   UNL     1      12.544  21.503  16.871 -0.17 +0.03    -0.296 N  
DOCKED: ATOM     12  C   UNL     1      12.371  20.972  18.223 -0.16 -0.02    +0.136 C  
DOCKED: ATOM     13  C   UNL     1      13.260  21.749  19.200 -0.11 -0.02    +0.179 C  
DOCKED: ATOM     14  O   UNL     1      14.637  21.694  18.792 -0.12 +0.05    -0.377 OA 
DOCKED: ATOM     15  C   UNL     1      14.795  22.261  17.474 -0.28 -0.03    +0.179 C  
DOCKED: ATOM     16  C   UNL     1      13.952  21.482  16.451 -0.21 -0.02    +0.136 C  
DOCKED: ENDBRANCH   8   9
DOCKED: ENDBRANCH   1   8
DOCKED: BRANCH   4  17
DOCKED: ATOM     17  N   UNL     1      10.855  27.395  17.970 -0.12 +0.13    -0.178 NA 
DOCKED: ATOM     18  H   UNL     1      10.050  27.963  18.240 -0.25 -0.25    +0.149 HD 
DOCKED: BRANCH  17  19
DOCKED: ATOM     19  S   UNL     1      12.267  28.200  18.501 -0.20 -0.01    +0.059 S  
DOCKED: ATOM     20  O   UNL     1      12.474  29.271  17.546 -0.36 -0.05    -0.153 OA 
DOCKED: ATOM     21  O   UNL     1      12.092  28.486  19.917 -0.03 +0.04    -0.153 OA 
DOCKED: BRANCH  19  22
DOCKED: ATOM     22  C   UNL     1      13.583  27.040  18.283 -0.12 +0.01    +0.106 A  
DOCKED: ATOM     23  C   UNL     1      13.738  26.008  19.207 -0.06 -0.00    +0.029 A  
DOCKED: ATOM     24  C   UNL     1      14.869  25.191  19.133 -0.07 -0.00    +0.010 A  
DOCKED: ATOM     25  C   UNL     1      15.860  25.415  18.159 -0.13 +0.00    -0.016 A  
DOCKED: ATOM     26  C   UNL     1      17.034  24.645  18.119 -0.16 -0.00    +0.028 A  
DOCKED: ATOM     27  C   UNL     1      18.024  24.915  17.173 -0.23 -0.00    +0.042 A  
DOCKED: ATOM     28 CL   UNL     1      19.451  23.952  17.135 -0.33 +0.02    -0.084 Cl 
DOCKED: ATOM     29  C   UNL     1      17.871  25.956  16.264 -0.28 +0.00    +0.020 A  
DOCKED: ATOM     30  C   UNL     1      16.706  26.723  16.285 -0.29 +0.00    +0.010 A  
DOCKED: ATOM     31  C   UNL     1      15.686  26.452  17.213 -0.19 -0.00    -0.016 A  
DOCKED: ATOM     32  C   UNL     1      14.517  27.226  17.253 +0.01 +0.01    +0.037 A  
DOCKED: ENDBRANCH  19  22
DOCKED: ENDBRANCH  17  19
DOCKED: ENDBRANCH   4  17
DOCKED: TORSDOF 5
DOCKED: TER
DOCKED: ENDMDL
________________________________________________________________________________


    FINAL DOCKED STATE:
    ________________________


Run:   36 / 50
Time taken for this run:   0.000s

DOCKED: MODEL        36
DOCKED: USER    Run = 36
DOCKED: USER
DOCKED: USER    Estimated Free Energy of Binding    =  -4.66 kcal/mol  [=(1)+(2)+(3)-(4)]
DOCKED: USER
DOCKED: USER    (1) Final Intermolecular Energy     =  -6.16 kcal/mol
DOCKED: USER        vdW + Hbond + desolv Energy     =  -5.99 kcal/mol
DOCKED: USER        Electrostatic Energy            =  -0.16 kcal/mol
DOCKED: USER        Moving Ligand-Fixed Receptor    =  -6.16 kcal/mol
DOCKED: USER        Moving Ligand-Moving Receptor   =  +0.00 kcal/mol
DOCKED: USER    (2) Final Total Internal Energy     =  -3.03 kcal/mol
DOCKED: USER    (3) Torsional Free Energy           =  +1.49 kcal/mol
DOCKED: USER    (4) Unbound System's Energy         =  -3.03 kcal/mol
DOCKED: USER
DOCKED: USER
DOCKED: REMARK  Name = 
DOCKED: REMARK  6 active torsions:
DOCKED: REMARK  status: ('A' for Active; 'I' for Inactive)
DOCKED: REMARK    1  A    between atoms: C_1  and  C_2
DOCKED: REMARK    2  A    between atoms: C_2  and  C_3
DOCKED: REMARK    3  A    between atoms: C_2  and  N_11
DOCKED: REMARK    4  A    between atoms: C_14  and  N_15
DOCKED: REMARK    5  A    between atoms: N_15  and  S_16
DOCKED: REMARK    6  A    between atoms: S_16  and  C_19
DOCKED: REMARK                            x       y       z     vdW  Elec       q    Type
DOCKED: REMARK                         _______ _______ _______ _____ _____    ______ ____
DOCKED: USER                              x       y       z     vdW  Elec       q    Type
DOCKED: USER                           _______ _______ _______ _____ _____    ______ ____
DOCKED: ROOT
DOCKED: ATOM      1  N   UNL     1       8.570  23.687  17.618 -0.09 +0.13    -0.289 N  
DOCKED: ATOM      2  C   UNL     1       8.399  22.699  18.660 -0.06 -0.03    +0.110 C  
DOCKED: ATOM      3  C   UNL     1       8.583  21.359  17.937 -0.10 -0.01    +0.049 C  
DOCKED: ATOM      4  C   UNL     1       8.154  21.683  16.507 -0.23 -0.04    +0.164 C  
DOCKED: ATOM      5  C   UNL     1       8.744  23.064  16.398 -0.22 -0.07    +0.235 C  
DOCKED: ATOM      6  O   UNL     1       9.272  23.591  15.443 -0.30 +0.06    -0.274 OA 
DOCKED: ENDROOT
DOCKED: BRANCH   1   8
DOCKED: ATOM      7  C   UNL     1       8.846  25.460  19.310 -0.12 -0.03    +0.038 C  
DOCKED: ATOM      8  C   UNL     1       9.040  25.058  17.840 -0.09 -0.12    +0.159 C  
DOCKED: BRANCH   8   9
DOCKED: ATOM      9  C   UNL     1      10.540  25.225  17.399 -0.18 -0.08    +0.236 C  
DOCKED: ATOM     10  O   UNL     1      10.822  25.840  16.366 -0.50 -0.03    -0.274 OA 
DOCKED: ATOM     11  N   UNL     1      11.548  24.585  18.120 -0.07 +0.04    -0.296 N  
DOCKED: ATOM     12  C   UNL     1      11.399  23.700  19.275 -0.04 -0.03    +0.136 C  
DOCKED: ATOM     13  C   UNL     1      11.917  24.402  20.535 -0.01 -0.04    +0.179 C  
DOCKED: ATOM     14  O   UNL     1      13.284  24.811  20.366 +0.00 +0.06    -0.377 OA 
DOCKED: ATOM     15  C   UNL     1      13.406  25.716  19.249 -0.05 -0.02    +0.179 C  
DOCKED: ATOM     16  C   UNL     1      12.936  25.036  17.953 -0.14 +0.00    +0.136 C  
DOCKED: ENDBRANCH   8   9
DOCKED: ENDBRANCH   1   8
DOCKED: BRANCH   4  17
DOCKED: ATOM     17  N   UNL     1       8.553  20.692  15.503 -0.25 +0.03    -0.178 NA 
DOCKED: ATOM     18  H   UNL     1       8.840  21.051  14.591 +0.07 -0.01    +0.149 HD 
DOCKED: BRANCH  17  19
DOCKED: ATOM     19  S   UNL     1       9.733  19.565  16.018 -0.52 -0.01    +0.059 S  
DOCKED: ATOM     20  O   UNL     1       9.163  18.930  17.191 -0.21 +0.02    -0.153 OA 
DOCKED: ATOM     21  O   UNL     1      10.112  18.779  14.854 -0.42 +0.03    -0.153 OA 
DOCKED: BRANCH  19  22
DOCKED: ATOM     22  C   UNL     1      11.107  20.534  16.561 -0.25 -0.01    +0.106 A  
DOCKED: ATOM     23  C   UNL     1      11.770  21.347  15.642 -0.38 -0.00    +0.029 A  
DOCKED: ATOM     24  C   UNL     1      12.952  21.985  16.024 -0.25 +0.00    +0.010 A  
DOCKED: ATOM     25  C   UNL     1      13.494  21.795  17.309 -0.32 +0.00    -0.016 A  
DOCKED: ATOM     26  C   UNL     1      14.717  22.374  17.682 -0.30 -0.00    +0.028 A  
DOCKED: ATOM     27  C   UNL     1      15.257  22.134  18.946 -0.18 -0.00    +0.042 A  
DOCKED: ATOM     28 CL   UNL     1      16.755  22.862  19.385 -0.19 +0.01    -0.084 Cl 
DOCKED: ATOM     29  C   UNL     1      14.600  21.310  19.853 -0.15 -0.00    +0.020 A  
DOCKED: ATOM     30  C   UNL     1      13.378  20.735  19.500 -0.15 -0.00    +0.010 A  
DOCKED: ATOM     31  C   UNL     1      12.805  20.984  18.242 -0.17 +0.00    -0.016 A  
DOCKED: ATOM     32  C   UNL     1      11.585  20.400  17.873 -0.13 -0.01    +0.037 A  
DOCKED: ENDBRANCH  19  22
DOCKED: ENDBRANCH  17  19
DOCKED: ENDBRANCH   4  17
DOCKED: TORSDOF 5
DOCKED: TER
DOCKED: ENDMDL
________________________________________________________________________________


    FINAL DOCKED STATE:
    ________________________


Run:   37 / 50
Time taken for this run:   0.000s

DOCKED: MODEL        37
DOCKED: USER    Run = 37
DOCKED: USER
DOCKED: USER    Estimated Free Energy of Binding    =  -4.25 kcal/mol  [=(1)+(2)+(3)-(4)]
DOCKED: USER
DOCKED: USER    (1) Final Intermolecular Energy     =  -5.74 kcal/mol
DOCKED: USER        vdW + Hbond + desolv Energy     =  -5.75 kcal/mol
DOCKED: USER        Electrostatic Energy            =  +0.01 kcal/mol
DOCKED: USER        Moving Ligand-Fixed Receptor    =  -5.74 kcal/mol
DOCKED: USER        Moving Ligand-Moving Receptor   =  +0.00 kcal/mol
DOCKED: USER    (2) Final Total Internal Energy     =  -2.51 kcal/mol
DOCKED: USER    (3) Torsional Free Energy           =  +1.49 kcal/mol
DOCKED: USER    (4) Unbound System's Energy         =  -2.51 kcal/mol
DOCKED: USER
DOCKED: USER
DOCKED: REMARK  Name = 
DOCKED: REMARK  6 active torsions:
DOCKED: REMARK  status: ('A' for Active; 'I' for Inactive)
DOCKED: REMARK    1  A    between atoms: C_1  and  C_2
DOCKED: REMARK    2  A    between atoms: C_2  and  C_3
DOCKED: REMARK    3  A    between atoms: C_2  and  N_11
DOCKED: REMARK    4  A    between atoms: C_14  and  N_15
DOCKED: REMARK    5  A    between atoms: N_15  and  S_16
DOCKED: REMARK    6  A    between atoms: S_16  and  C_19
DOCKED: REMARK                            x       y       z     vdW  Elec       q    Type
DOCKED: REMARK                         _______ _______ _______ _____ _____    ______ ____
DOCKED: USER                              x       y       z     vdW  Elec       q    Type
DOCKED: USER                           _______ _______ _______ _____ _____    ______ ____
DOCKED: ROOT
DOCKED: ATOM      1  N   UNL     1       8.040  18.279  19.273 -0.03 +0.03    -0.289 N  
DOCKED: ATOM      2  C   UNL     1       9.012  17.268  19.624 -0.11 -0.01    +0.110 C  
DOCKED: ATOM      3  C   UNL     1      10.349  17.857  19.154 -0.16 -0.01    +0.049 C  
DOCKED: ATOM      4  C   UNL     1       9.931  18.773  18.007 -0.18 -0.02    +0.164 C  
DOCKED: ATOM      5  C   UNL     1       8.656  19.314  18.597 -0.07 -0.03    +0.235 C  
DOCKED: ATOM      6  O   UNL     1       8.196  20.433  18.516 -0.03 +0.05    -0.274 OA 
DOCKED: ENDROOT
DOCKED: BRANCH   1   8
DOCKED: ATOM      7  C   UNL     1       6.890  19.608  21.004 -0.01 -0.01    +0.038 C  
DOCKED: ATOM      8  C   UNL     1       6.763  18.483  19.965 -0.02 -0.02    +0.159 C  
DOCKED: BRANCH   8   9
DOCKED: ATOM      9  C   UNL     1       5.602  18.777  18.947 -0.03 -0.03    +0.236 C  
DOCKED: ATOM     10  O   UNL     1       5.176  19.927  18.801 -0.01 +0.05    -0.274 OA 
DOCKED: ATOM     11  N   UNL     1       4.981  17.719  18.283 -0.03 +0.03    -0.296 N  
DOCKED: ATOM     12  C   UNL     1       5.245  16.288  18.435 -0.13 -0.01    +0.136 C  
DOCKED: ATOM     13  C   UNL     1       5.927  15.752  17.172 -0.19 +0.00    +0.179 C  
DOCKED: ATOM     14  O   UNL     1       5.124  16.012  16.009 -0.28 +0.01    -0.377 OA 
DOCKED: ATOM     15  C   UNL     1       4.909  17.430  15.851 -0.23 -0.02    +0.179 C  
DOCKED: ATOM     16  C   UNL     1       4.186  18.003  17.081 -0.15 -0.02    +0.136 C  
DOCKED: ENDBRANCH   8   9
DOCKED: ENDBRANCH   1   8
DOCKED: BRANCH   4  17
DOCKED: ATOM     17  N   UNL     1      10.949  19.740  17.586 -0.13 +0.03    -0.178 NA 
DOCKED: ATOM     18  H   UNL     1      11.923  19.488  17.762 +0.06 -0.02    +0.149 HD 
DOCKED: BRANCH  17  19
DOCKED: ATOM     19  S   UNL     1      10.829  20.269  15.964 -0.50 -0.01    +0.059 S  
DOCKED: ATOM     20  O   UNL     1      12.044  21.020  15.719 -0.39 +0.01    -0.153 OA 
DOCKED: ATOM     21  O   UNL     1      10.496  19.104  15.157 -0.49 +0.02    -0.153 OA 
DOCKED: BRANCH  19  22
DOCKED: ATOM     22  C   UNL     1       9.487  21.418  15.939 -0.24 -0.02    +0.106 A  
DOCKED: ATOM     23  C   UNL     1       9.714  22.737  16.329 -0.28 -0.01    +0.029 A  
DOCKED: ATOM     24  C   UNL     1       8.629  23.604  16.469 -0.27 -0.00    +0.010 A  
DOCKED: ATOM     25  C   UNL     1       7.312  23.156  16.249 -0.26 +0.01    -0.016 A  
DOCKED: ATOM     26  C   UNL     1       6.208  23.998  16.454 -0.19 -0.02    +0.028 A  
DOCKED: ATOM     27  C   UNL     1       4.910  23.519  16.273 -0.21 -0.02    +0.042 A  
DOCKED: ATOM     28 CL   UNL     1       3.570  24.572  16.521 -0.21 +0.04    -0.084 Cl 
DOCKED: ATOM     29  C   UNL     1       4.688  22.198  15.900 -0.23 -0.01    +0.020 A  
DOCKED: ATOM     30  C   UNL     1       5.776  21.352  15.683 -0.18 -0.00    +0.010 A  
DOCKED: ATOM     31  C   UNL     1       7.091  21.822  15.834 -0.27 +0.01    -0.016 A  
DOCKED: ATOM     32  C   UNL     1       8.191  20.976  15.632 -0.30 -0.01    +0.037 A  
DOCKED: ENDBRANCH  19  22
DOCKED: ENDBRANCH  17  19
DOCKED: ENDBRANCH   4  17
DOCKED: TORSDOF 5
DOCKED: TER
DOCKED: ENDMDL
________________________________________________________________________________


    FINAL DOCKED STATE:
    ________________________


Run:   38 / 50
Time taken for this run:   0.000s

DOCKED: MODEL        38
DOCKED: USER    Run = 38
DOCKED: USER
DOCKED: USER    Estimated Free Energy of Binding    =  -5.59 kcal/mol  [=(1)+(2)+(3)-(4)]
DOCKED: USER
DOCKED: USER    (1) Final Intermolecular Energy     =  -7.08 kcal/mol
DOCKED: USER        vdW + Hbond + desolv Energy     =  -7.13 kcal/mol
DOCKED: USER        Electrostatic Energy            =  +0.05 kcal/mol
DOCKED: USER        Moving Ligand-Fixed Receptor    =  -7.08 kcal/mol
DOCKED: USER        Moving Ligand-Moving Receptor   =  +0.00 kcal/mol
DOCKED: USER    (2) Final Total Internal Energy     =  -1.94 kcal/mol
DOCKED: USER    (3) Torsional Free Energy           =  +1.49 kcal/mol
DOCKED: USER    (4) Unbound System's Energy         =  -1.94 kcal/mol
DOCKED: USER
DOCKED: USER
DOCKED: REMARK  Name = 
DOCKED: REMARK  6 active torsions:
DOCKED: REMARK  status: ('A' for Active; 'I' for Inactive)
DOCKED: REMARK    1  A    between atoms: C_1  and  C_2
DOCKED: REMARK    2  A    between atoms: C_2  and  C_3
DOCKED: REMARK    3  A    between atoms: C_2  and  N_11
DOCKED: REMARK    4  A    between atoms: C_14  and  N_15
DOCKED: REMARK    5  A    between atoms: N_15  and  S_16
DOCKED: REMARK    6  A    between atoms: S_16  and  C_19
DOCKED: REMARK                            x       y       z     vdW  Elec       q    Type
DOCKED: REMARK                         _______ _______ _______ _____ _____    ______ ____
DOCKED: USER                              x       y       z     vdW  Elec       q    Type
DOCKED: USER                           _______ _______ _______ _____ _____    ______ ____
DOCKED: ROOT
DOCKED: ATOM      1  N   UNL     1      11.576  20.836  16.640 -0.16 +0.04    -0.289 N  
DOCKED: ATOM      2  C   UNL     1      11.389  21.265  18.009 -0.15 -0.02    +0.110 C  
DOCKED: ATOM      3  C   UNL     1      12.681  22.024  18.342 -0.18 -0.01    +0.049 C  
DOCKED: ATOM      4  C   UNL     1      13.706  21.370  17.417 -0.22 -0.03    +0.164 C  
DOCKED: ATOM      5  C   UNL     1      12.837  21.190  16.201 -0.21 -0.03    +0.235 C  
DOCKED: ATOM      6  O   UNL     1      13.134  21.305  15.032 -0.34 +0.01    -0.274 OA 
DOCKED: ENDROOT
DOCKED: BRANCH   1   8
DOCKED: ATOM      7  C   UNL     1      10.120  19.095  15.677 -0.43 -0.01    +0.038 C  
DOCKED: ATOM      8  C   UNL     1      10.487  20.586  15.691 -0.24 -0.02    +0.159 C  
DOCKED: BRANCH   8   9
DOCKED: ATOM      9  C   UNL     1       9.233  21.479  16.013 -0.24 -0.04    +0.236 C  
DOCKED: ATOM     10  O   UNL     1       8.161  20.956  16.330 -0.19 +0.06    -0.274 OA 
DOCKED: ATOM     11  N   UNL     1       9.305  22.860  15.836 -0.21 +0.06    -0.296 N  
DOCKED: ATOM     12  C   UNL     1      10.434  23.641  15.329 -0.38 +0.00    +0.136 C  
DOCKED: ATOM     13  C   UNL     1      11.044  24.466  16.468 -0.22 +0.00    +0.179 C  
DOCKED: ATOM     14  O   UNL     1      10.054  25.314  17.071 -0.16 +0.18    -0.377 OA 
DOCKED: ATOM     15  C   UNL     1       8.969  24.525  17.602 -0.15 -0.11    +0.179 C  
DOCKED: ATOM     16  C   UNL     1       8.298  23.712  16.483 -0.22 -0.06    +0.136 C  
DOCKED: ENDBRANCH   8   9
DOCKED: ENDBRANCH   1   8
DOCKED: BRANCH   4  17
DOCKED: ATOM     17  N   UNL     1      14.956  22.118  17.255 -0.28 +0.04    -0.178 NA 
DOCKED: ATOM     18  H   UNL     1      15.297  22.242  16.300 -0.16 -0.03    +0.149 HD 
DOCKED: BRANCH  17  19
DOCKED: ATOM     19  S   UNL     1      15.001  23.642  18.030 -0.28 -0.00    +0.059 S  
DOCKED: ATOM     20  O   UNL     1      13.896  24.389  17.460 -0.15 -0.01    -0.153 OA 
DOCKED: ATOM     21  O   UNL     1      15.075  23.394  19.462 -0.07 +0.02    -0.153 OA 
DOCKED: BRANCH  19  22
DOCKED: ATOM     22  C   UNL     1      16.494  24.410  17.477 -0.22 -0.01    +0.106 A  
DOCKED: ATOM     23  C   UNL     1      16.432  25.679  16.904 -0.23 +0.00    +0.029 A  
DOCKED: ATOM     24  C   UNL     1      17.580  26.220  16.318 -0.29 +0.00    +0.010 A  
DOCKED: ATOM     25  C   UNL     1      18.782  25.489  16.276 -0.24 +0.00    -0.016 A  
DOCKED: ATOM     26  C   UNL     1      19.922  25.991  15.629 -0.16 -0.00    +0.028 A  
DOCKED: ATOM     27  C   UNL     1      21.089  25.230  15.560 -0.20 -0.01    +0.042 A  
DOCKED: ATOM     28 CL   UNL     1      22.479  25.870  14.770 -0.24 +0.02    -0.084 Cl 
DOCKED: ATOM     29  C   UNL     1      21.140  23.958  16.120 -0.24 -0.01    +0.020 A  
DOCKED: ATOM     30  C   UNL     1      20.018  23.449  16.775 -0.18 -0.00    +0.010 A  
DOCKED: ATOM     31  C   UNL     1      18.841  24.210  16.878 -0.23 +0.00    -0.016 A  
DOCKED: ATOM     32  C   UNL     1      17.704  23.702  17.521 -0.23 -0.01    +0.037 A  
DOCKED: ENDBRANCH  19  22
DOCKED: ENDBRANCH  17  19
DOCKED: ENDBRANCH   4  17
DOCKED: TORSDOF 5
DOCKED: TER
DOCKED: ENDMDL
________________________________________________________________________________


    FINAL DOCKED STATE:
    ________________________


Run:   39 / 50
Time taken for this run:   0.000s

DOCKED: MODEL        39
DOCKED: USER    Run = 39
DOCKED: USER
DOCKED: USER    Estimated Free Energy of Binding    =  -4.14 kcal/mol  [=(1)+(2)+(3)-(4)]
DOCKED: USER
DOCKED: USER    (1) Final Intermolecular Energy     =  -5.63 kcal/mol
DOCKED: USER        vdW + Hbond + desolv Energy     =  -5.71 kcal/mol
DOCKED: USER        Electrostatic Energy            =  +0.08 kcal/mol
DOCKED: USER        Moving Ligand-Fixed Receptor    =  -5.63 kcal/mol
DOCKED: USER        Moving Ligand-Moving Receptor   =  +0.00 kcal/mol
DOCKED: USER    (2) Final Total Internal Energy     =  -2.69 kcal/mol
DOCKED: USER    (3) Torsional Free Energy           =  +1.49 kcal/mol
DOCKED: USER    (4) Unbound System's Energy         =  -2.69 kcal/mol
DOCKED: USER
DOCKED: USER
DOCKED: REMARK  Name = 
DOCKED: REMARK  6 active torsions:
DOCKED: REMARK  status: ('A' for Active; 'I' for Inactive)
DOCKED: REMARK    1  A    between atoms: C_1  and  C_2
DOCKED: REMARK    2  A    between atoms: C_2  and  C_3
DOCKED: REMARK    3  A    between atoms: C_2  and  N_11
DOCKED: REMARK    4  A    between atoms: C_14  and  N_15
DOCKED: REMARK    5  A    between atoms: N_15  and  S_16
DOCKED: REMARK    6  A    between atoms: S_16  and  C_19
DOCKED: REMARK                            x       y       z     vdW  Elec       q    Type
DOCKED: REMARK                         _______ _______ _______ _____ _____    ______ ____
DOCKED: USER                              x       y       z     vdW  Elec       q    Type
DOCKED: USER                           _______ _______ _______ _____ _____    ______ ____
DOCKED: ROOT
DOCKED: ATOM      1  N   UNL     1      15.426  25.099  17.518 -0.11 -0.02    -0.289 N  
DOCKED: ATOM      2  C   UNL     1      16.090  26.305  17.960 -0.12 +0.00    +0.110 C  
DOCKED: ATOM      3  C   UNL     1      15.011  27.060  18.746 -0.08 -0.00    +0.049 C  
DOCKED: ATOM      4  C   UNL     1      13.717  26.570  18.100 -0.13 +0.01    +0.164 C  
DOCKED: ATOM      5  C   UNL     1      14.096  25.128  17.890 -0.11 +0.01    +0.235 C  
DOCKED: ATOM      6  O   UNL     1      13.406  24.138  17.996 -0.11 +0.00    -0.274 OA 
DOCKED: ENDROOT
DOCKED: BRANCH   1   8
DOCKED: ATOM      7  C   UNL     1      17.622  24.045  17.135 -0.34 -0.01    +0.038 C  
DOCKED: ATOM      8  C   UNL     1      16.105  23.830  17.236 -0.22 -0.01    +0.159 C  
DOCKED: BRANCH   8   9
DOCKED: ATOM      9  C   UNL     1      15.754  22.744  18.318 -0.16 -0.03    +0.236 C  
DOCKED: ATOM     10  O   UNL     1      16.291  22.774  19.429 -0.09 +0.02    -0.274 OA 
DOCKED: ATOM     11  N   UNL     1      14.913  21.683  17.984 -0.19 +0.06    -0.296 N  
DOCKED: ATOM     12  C   UNL     1      14.303  21.399  16.684 -0.17 -0.03    +0.136 C  
DOCKED: ATOM     13  C   UNL     1      12.792  21.648  16.757 -0.29 -0.02    +0.179 C  
DOCKED: ATOM     14  O   UNL     1      12.194  20.856  17.797 -0.09 +0.05    -0.377 OA 
DOCKED: ATOM     15  C   UNL     1      12.778  21.180  19.076 -0.12 -0.03    +0.179 C  
DOCKED: ATOM     16  C   UNL     1      14.290  20.904  19.062 -0.20 -0.02    +0.136 C  
DOCKED: ENDBRANCH   8   9
DOCKED: ENDBRANCH   1   8
DOCKED: BRANCH   4  17
DOCKED: ATOM     17  N   UNL     1      12.499  26.847  18.869 -0.07 +0.02    -0.178 NA 
DOCKED: ATOM     18  H   UNL     1      12.530  27.644  19.507 +0.02 -0.03    +0.149 HD 
DOCKED: BRANCH  17  19
DOCKED: ATOM     19  S   UNL     1      11.065  26.970  17.946 -0.24 -0.03    +0.059 S  
DOCKED: ATOM     20  O   UNL     1      10.031  27.328  18.898 -0.10 +0.16    -0.153 OA 
DOCKED: ATOM     21  O   UNL     1      11.359  27.825  16.806 -0.57 -0.02    -0.153 OA 
DOCKED: BRANCH  19  22
DOCKED: ATOM     22  C   UNL     1      10.720  25.328  17.389 -0.20 -0.03    +0.106 A  
DOCKED: ATOM     23  C   UNL     1      10.748  25.055  16.022 -0.10 +0.00    +0.029 A  
DOCKED: ATOM     24  C   UNL     1      10.317  23.807  15.567 -0.39 -0.00    +0.010 A  
DOCKED: ATOM     25  C   UNL     1       9.830  22.838  16.465 -0.27 +0.00    -0.016 A  
DOCKED: ATOM     26  C   UNL     1       9.329  21.607  16.014 -0.30 -0.00    +0.028 A  
DOCKED: ATOM     27  C   UNL     1       8.809  20.681  16.918 -0.20 -0.01    +0.042 A  
DOCKED: ATOM     28 CL   UNL     1       8.207  19.173  16.344 -0.41 +0.01    -0.084 Cl 
DOCKED: ATOM     29  C   UNL     1       8.768  20.965  18.279 -0.08 -0.00    +0.020 A  
DOCKED: ATOM     30  C   UNL     1       9.272  22.180  18.744 -0.06 -0.00    +0.010 A  
DOCKED: ATOM     31  C   UNL     1       9.823  23.116  17.852 -0.12 +0.00    -0.016 A  
DOCKED: ATOM     32  C   UNL     1      10.318  24.347  18.307 -0.12 -0.01    +0.037 A  
DOCKED: ENDBRANCH  19  22
DOCKED: ENDBRANCH  17  19
DOCKED: ENDBRANCH   4  17
DOCKED: TORSDOF 5
DOCKED: TER
DOCKED: ENDMDL
________________________________________________________________________________


    FINAL DOCKED STATE:
    ________________________


Run:   40 / 50
Time taken for this run:   0.000s

DOCKED: MODEL        40
DOCKED: USER    Run = 40
DOCKED: USER
DOCKED: USER    Estimated Free Energy of Binding    =  -4.67 kcal/mol  [=(1)+(2)+(3)-(4)]
DOCKED: USER
DOCKED: USER    (1) Final Intermolecular Energy     =  -6.16 kcal/mol
DOCKED: USER        vdW + Hbond + desolv Energy     =  -6.09 kcal/mol
DOCKED: USER        Electrostatic Energy            =  -0.07 kcal/mol
DOCKED: USER        Moving Ligand-Fixed Receptor    =  -6.16 kcal/mol
DOCKED: USER        Moving Ligand-Moving Receptor   =  +0.00 kcal/mol
DOCKED: USER    (2) Final Total Internal Energy     =  -2.78 kcal/mol
DOCKED: USER    (3) Torsional Free Energy           =  +1.49 kcal/mol
DOCKED: USER    (4) Unbound System's Energy         =  -2.78 kcal/mol
DOCKED: USER
DOCKED: USER
DOCKED: REMARK  Name = 
DOCKED: REMARK  6 active torsions:
DOCKED: REMARK  status: ('A' for Active; 'I' for Inactive)
DOCKED: REMARK    1  A    between atoms: C_1  and  C_2
DOCKED: REMARK    2  A    between atoms: C_2  and  C_3
DOCKED: REMARK    3  A    between atoms: C_2  and  N_11
DOCKED: REMARK    4  A    between atoms: C_14  and  N_15
DOCKED: REMARK    5  A    between atoms: N_15  and  S_16
DOCKED: REMARK    6  A    between atoms: S_16  and  C_19
DOCKED: REMARK                            x       y       z     vdW  Elec       q    Type
DOCKED: REMARK                         _______ _______ _______ _____ _____    ______ ____
DOCKED: USER                              x       y       z     vdW  Elec       q    Type
DOCKED: USER                           _______ _______ _______ _____ _____    ______ ____
DOCKED: ROOT
DOCKED: ATOM      1  N   UNL     1       7.481  20.064  17.462 -0.06 +0.05    -0.289 N  
DOCKED: ATOM      2  C   UNL     1       6.452  21.077  17.543 -0.10 -0.03    +0.110 C  
DOCKED: ATOM      3  C   UNL     1       6.843  22.093  16.462 -0.26 -0.02    +0.049 C  
DOCKED: ATOM      4  C   UNL     1       8.358  21.925  16.370 -0.25 -0.04    +0.164 C  
DOCKED: ATOM      5  C   UNL     1       8.434  20.430  16.531 -0.20 -0.04    +0.235 C  
DOCKED: ATOM      6  O   UNL     1       9.178  19.644  15.986 -0.28 +0.04    -0.274 OA 
DOCKED: ENDROOT
DOCKED: BRANCH   1   8
DOCKED: ATOM      7  C   UNL     1       6.747  17.849  16.663 -0.25 -0.00    +0.038 C  
DOCKED: ATOM      8  C   UNL     1       7.299  18.661  17.845 -0.12 -0.02    +0.159 C  
DOCKED: BRANCH   8   9
DOCKED: ATOM      9  C   UNL     1       8.637  18.039  18.387 -0.12 -0.02    +0.236 C  
DOCKED: ATOM     10  O   UNL     1       9.056  16.968  17.936 -0.16 +0.01    -0.274 OA 
DOCKED: ATOM     11  N   UNL     1       9.299  18.647  19.454 -0.04 +0.04    -0.296 N  
DOCKED: ATOM     12  C   UNL     1       8.882  19.828  20.210 -0.03 -0.02    +0.136 C  
DOCKED: ATOM     13  C   UNL     1       9.811  21.003  19.886 -0.03 -0.03    +0.179 C  
DOCKED: ATOM     14  O   UNL     1      11.180  20.663  20.163 -0.02 +0.06    -0.377 OA 
DOCKED: ATOM     15  C   UNL     1      11.586  19.523  19.378 -0.08 -0.02    +0.179 C  
DOCKED: ATOM     16  C   UNL     1      10.706  18.305  19.704 -0.11 -0.02    +0.136 C  
DOCKED: ENDBRANCH   8   9
DOCKED: ENDBRANCH   1   8
DOCKED: BRANCH   4  17
DOCKED: ATOM     17  N   UNL     1       8.974  22.512  15.176 -0.26 +0.04    -0.178 NA 
DOCKED: ATOM     18  H   UNL     1       8.343  22.782  14.419 -0.39 -0.08    +0.149 HD 
DOCKED: BRANCH  17  19
DOCKED: ATOM     19  S   UNL     1      10.031  23.824  15.471 -0.52 -0.01    +0.059 S  
DOCKED: ATOM     20  O   UNL     1      10.438  24.284  14.158 -0.44 -0.02    -0.153 OA 
DOCKED: ATOM     21  O   UNL     1       9.357  24.719  16.400 -0.17 +0.07    -0.153 OA 
DOCKED: BRANCH  19  22
DOCKED: ATOM     22  C   UNL     1      11.455  23.120  16.246 -0.24 +0.00    +0.106 A  
DOCKED: ATOM     23  C   UNL     1      12.097  22.043  15.636 -0.35 +0.00    +0.029 A  
DOCKED: ATOM     24  C   UNL     1      13.117  21.379  16.321 -0.34 -0.00    +0.010 A  
DOCKED: ATOM     25  C   UNL     1      13.483  21.766  17.624 -0.29 +0.00    -0.016 A  
DOCKED: ATOM     26  C   UNL     1      14.457  21.064  18.351 -0.20 -0.00    +0.028 A  
DOCKED: ATOM     27  C   UNL     1      14.770  21.437  19.658 -0.16 -0.00    +0.042 A  
DOCKED: ATOM     28 CL   UNL     1      15.977  20.567  20.527 -0.19 -0.00    -0.084 Cl 
DOCKED: ATOM     29  C   UNL     1      14.116  22.502  20.267 -0.06 -0.00    +0.020 A  
DOCKED: ATOM     30  C   UNL     1      13.152  23.216  19.555 -0.06 -0.00    +0.010 A  
DOCKED: ATOM     31  C   UNL     1      12.840  22.872  18.229 -0.15 +0.00    -0.016 A  
DOCKED: ATOM     32  C   UNL     1      11.862  23.574  17.509 -0.16 -0.00    +0.037 A  
DOCKED: ENDBRANCH  19  22
DOCKED: ENDBRANCH  17  19
DOCKED: ENDBRANCH   4  17
DOCKED: TORSDOF 5
DOCKED: TER
DOCKED: ENDMDL
________________________________________________________________________________


    FINAL DOCKED STATE:
    ________________________


Run:   41 / 50
Time taken for this run:   0.000s

DOCKED: MODEL        41
DOCKED: USER    Run = 41
DOCKED: USER
DOCKED: USER    Estimated Free Energy of Binding    =  -4.71 kcal/mol  [=(1)+(2)+(3)-(4)]
DOCKED: USER
DOCKED: USER    (1) Final Intermolecular Energy     =  -6.20 kcal/mol
DOCKED: USER        vdW + Hbond + desolv Energy     =  -6.13 kcal/mol
DOCKED: USER        Electrostatic Energy            =  -0.07 kcal/mol
DOCKED: USER        Moving Ligand-Fixed Receptor    =  -6.20 kcal/mol
DOCKED: USER        Moving Ligand-Moving Receptor   =  +0.00 kcal/mol
DOCKED: USER    (2) Final Total Internal Energy     =  -2.77 kcal/mol
DOCKED: USER    (3) Torsional Free Energy           =  +1.49 kcal/mol
DOCKED: USER    (4) Unbound System's Energy         =  -2.77 kcal/mol
DOCKED: USER
DOCKED: USER
DOCKED: REMARK  Name = 
DOCKED: REMARK  6 active torsions:
DOCKED: REMARK  status: ('A' for Active; 'I' for Inactive)
DOCKED: REMARK    1  A    between atoms: C_1  and  C_2
DOCKED: REMARK    2  A    between atoms: C_2  and  C_3
DOCKED: REMARK    3  A    between atoms: C_2  and  N_11
DOCKED: REMARK    4  A    between atoms: C_14  and  N_15
DOCKED: REMARK    5  A    between atoms: N_15  and  S_16
DOCKED: REMARK    6  A    between atoms: S_16  and  C_19
DOCKED: REMARK                            x       y       z     vdW  Elec       q    Type
DOCKED: REMARK                         _______ _______ _______ _____ _____    ______ ____
DOCKED: USER                              x       y       z     vdW  Elec       q    Type
DOCKED: USER                           _______ _______ _______ _____ _____    ______ ____
DOCKED: ROOT
DOCKED: ATOM      1  N   UNL     1       7.297  20.024  17.166 -0.08 +0.05    -0.289 N  
DOCKED: ATOM      2  C   UNL     1       6.212  20.966  17.005 -0.14 -0.02    +0.110 C  
DOCKED: ATOM      3  C   UNL     1       6.728  21.953  15.949 -0.29 -0.02    +0.049 C  
DOCKED: ATOM      4  C   UNL     1       8.242  21.885  16.134 -0.27 -0.04    +0.164 C  
DOCKED: ATOM      5  C   UNL     1       8.377  20.409  16.395 -0.22 -0.04    +0.235 C  
DOCKED: ATOM      6  O   UNL     1       9.251  19.650  16.037 -0.27 +0.04    -0.274 OA 
DOCKED: ENDROOT
DOCKED: BRANCH   1   8
DOCKED: ATOM      7  C   UNL     1       6.664  17.759  16.422 -0.24 -0.00    +0.038 C  
DOCKED: ATOM      8  C   UNL     1       7.133  18.632  17.596 -0.14 -0.02    +0.159 C  
DOCKED: BRANCH   8   9
DOCKED: ATOM      9  C   UNL     1       8.459  18.070  18.228 -0.12 -0.02    +0.236 C  
DOCKED: ATOM     10  O   UNL     1       8.890  16.962  17.893 -0.15 +0.01    -0.274 OA 
DOCKED: ATOM     11  N   UNL     1       9.094  18.780  19.247 -0.04 +0.04    -0.296 N  
DOCKED: ATOM     12  C   UNL     1       8.657  20.028  19.875 -0.03 -0.02    +0.136 C  
DOCKED: ATOM     13  C   UNL     1       9.592  21.169  19.461 -0.03 -0.03    +0.179 C  
DOCKED: ATOM     14  O   UNL     1      10.954  20.863  19.804 -0.02 +0.06    -0.377 OA 
DOCKED: ATOM     15  C   UNL     1      11.380  19.654  19.142 -0.08 -0.03    +0.179 C  
DOCKED: ATOM     16  C   UNL     1      10.494  18.470  19.563 -0.12 -0.02    +0.136 C  
DOCKED: ENDBRANCH   8   9
DOCKED: ENDBRANCH   1   8
DOCKED: BRANCH   4  17
DOCKED: ATOM     17  N   UNL     1       9.024  22.454  15.032 -0.16 +0.04    -0.178 NA 
DOCKED: ATOM     18  H   UNL     1       8.513  22.696  14.182 -0.40 -0.07    +0.149 HD 
DOCKED: BRANCH  17  19
DOCKED: ATOM     19  S   UNL     1      10.008  23.790  15.449 -0.52 -0.01    +0.059 S  
DOCKED: ATOM     20  O   UNL     1      10.424  24.364  14.184 -0.44 -0.02    -0.153 OA 
DOCKED: ATOM     21  O   UNL     1       9.269  24.581  16.421 -0.19 +0.07    -0.153 OA 
DOCKED: BRANCH  19  22
DOCKED: ATOM     22  C   UNL     1      11.446  23.098  16.209 -0.25 +0.00    +0.106 A  
DOCKED: ATOM     23  C   UNL     1      12.058  21.991  15.624 -0.35 +0.00    +0.029 A  
DOCKED: ATOM     24  C   UNL     1      13.091  21.342  16.305 -0.33 -0.00    +0.010 A  
DOCKED: ATOM     25  C   UNL     1      13.499  21.775  17.581 -0.29 +0.00    -0.016 A  
DOCKED: ATOM     26  C   UNL     1      14.486  21.090  18.306 -0.21 -0.00    +0.028 A  
DOCKED: ATOM     27  C   UNL     1      14.842  21.510  19.588 -0.16 -0.00    +0.042 A  
DOCKED: ATOM     28 CL   UNL     1      16.064  20.660  20.455 -0.15 -0.00    -0.084 Cl 
DOCKED: ATOM     29  C   UNL     1      14.218  22.606  20.173 -0.06 -0.00    +0.020 A  
DOCKED: ATOM     30  C   UNL     1      13.241  23.303  19.462 -0.06 -0.00    +0.010 A  
DOCKED: ATOM     31  C   UNL     1      12.886  22.912  18.160 -0.15 +0.00    -0.016 A  
DOCKED: ATOM     32  C   UNL     1      11.896  23.597  17.441 -0.17 -0.00    +0.037 A  
DOCKED: ENDBRANCH  19  22
DOCKED: ENDBRANCH  17  19
DOCKED: ENDBRANCH   4  17
DOCKED: TORSDOF 5
DOCKED: TER
DOCKED: ENDMDL
________________________________________________________________________________


    FINAL DOCKED STATE:
    ________________________


Run:   42 / 50
Time taken for this run:   0.000s

DOCKED: MODEL        42
DOCKED: USER    Run = 42
DOCKED: USER
DOCKED: USER    Estimated Free Energy of Binding    =  -5.58 kcal/mol  [=(1)+(2)+(3)-(4)]
DOCKED: USER
DOCKED: USER    (1) Final Intermolecular Energy     =  -7.07 kcal/mol
DOCKED: USER        vdW + Hbond + desolv Energy     =  -7.12 kcal/mol
DOCKED: USER        Electrostatic Energy            =  +0.04 kcal/mol
DOCKED: USER        Moving Ligand-Fixed Receptor    =  -7.07 kcal/mol
DOCKED: USER        Moving Ligand-Moving Receptor   =  +0.00 kcal/mol
DOCKED: USER    (2) Final Total Internal Energy     =  -1.95 kcal/mol
DOCKED: USER    (3) Torsional Free Energy           =  +1.49 kcal/mol
DOCKED: USER    (4) Unbound System's Energy         =  -1.95 kcal/mol
DOCKED: USER
DOCKED: USER
DOCKED: REMARK  Name = 
DOCKED: REMARK  6 active torsions:
DOCKED: REMARK  status: ('A' for Active; 'I' for Inactive)
DOCKED: REMARK    1  A    between atoms: C_1  and  C_2
DOCKED: REMARK    2  A    between atoms: C_2  and  C_3
DOCKED: REMARK    3  A    between atoms: C_2  and  N_11
DOCKED: REMARK    4  A    between atoms: C_14  and  N_15
DOCKED: REMARK    5  A    between atoms: N_15  and  S_16
DOCKED: REMARK    6  A    between atoms: S_16  and  C_19
DOCKED: REMARK                            x       y       z     vdW  Elec       q    Type
DOCKED: REMARK                         _______ _______ _______ _____ _____    ______ ____
DOCKED: USER                              x       y       z     vdW  Elec       q    Type
DOCKED: USER                           _______ _______ _______ _____ _____    ______ ____
DOCKED: ROOT
DOCKED: ATOM      1  N   UNL     1      11.654  20.811  16.655 -0.16 +0.04    -0.289 N  
DOCKED: ATOM      2  C   UNL     1      11.443  21.238  18.020 -0.15 -0.02    +0.110 C  
DOCKED: ATOM      3  C   UNL     1      12.720  22.011  18.372 -0.18 -0.01    +0.049 C  
DOCKED: ATOM      4  C   UNL     1      13.766  21.370  17.463 -0.22 -0.03    +0.164 C  
DOCKED: ATOM      5  C   UNL     1      12.917  21.180  16.234 -0.17 -0.03    +0.235 C  
DOCKED: ATOM      6  O   UNL     1      13.230  21.299  15.069 -0.31 +0.01    -0.274 OA 
DOCKED: ENDROOT
DOCKED: BRANCH   1   8
DOCKED: ATOM      7  C   UNL     1      10.241  19.052  15.660 -0.42 -0.01    +0.038 C  
DOCKED: ATOM      8  C   UNL     1      10.582  20.549  15.689 -0.26 -0.02    +0.159 C  
DOCKED: BRANCH   8   9
DOCKED: ATOM      9  C   UNL     1       9.309  21.417  16.001 -0.24 -0.04    +0.236 C  
DOCKED: ATOM     10  O   UNL     1       8.247  20.875  16.320 -0.19 +0.05    -0.274 OA 
DOCKED: ATOM     11  N   UNL     1       9.352  22.799  15.813 -0.21 +0.06    -0.296 N  
DOCKED: ATOM     12  C   UNL     1      10.466  23.599  15.304 -0.38 +0.00    +0.136 C  
DOCKED: ATOM     13  C   UNL     1      11.055  24.445  16.437 -0.22 +0.00    +0.179 C  
DOCKED: ATOM     14  O   UNL     1      10.044  25.278  17.031 -0.16 +0.17    -0.377 OA 
DOCKED: ATOM     15  C   UNL     1       8.975  24.470  17.565 -0.16 -0.10    +0.179 C  
DOCKED: ATOM     16  C   UNL     1       8.325  23.634  16.451 -0.24 -0.06    +0.136 C  
DOCKED: ENDBRANCH   8   9
DOCKED: ENDBRANCH   1   8
DOCKED: BRANCH   4  17
DOCKED: ATOM     17  N   UNL     1      15.010  22.132  17.319 -0.27 +0.04    -0.178 NA 
DOCKED: ATOM     18  H   UNL     1      15.386  22.224  16.374 -0.20 -0.04    +0.149 HD 
DOCKED: BRANCH  17  19
DOCKED: ATOM     19  S   UNL     1      15.000  23.686  18.034 -0.28 -0.00    +0.059 S  
DOCKED: ATOM     20  O   UNL     1      13.890  24.381  17.413 -0.13 -0.02    -0.153 OA 
DOCKED: ATOM     21  O   UNL     1      15.050  23.496  19.476 -0.07 +0.02    -0.153 OA 
DOCKED: BRANCH  19  22
DOCKED: ATOM     22  C   UNL     1      16.485  24.469  17.482 -0.22 -0.00    +0.106 A  
DOCKED: ATOM     23  C   UNL     1      16.411  25.737  16.906 -0.23 +0.00    +0.029 A  
DOCKED: ATOM     24  C   UNL     1      17.553  26.288  16.321 -0.29 +0.00    +0.010 A  
DOCKED: ATOM     25  C   UNL     1      18.764  25.571  16.283 -0.24 +0.00    -0.016 A  
DOCKED: ATOM     26  C   UNL     1      19.899  26.085  15.636 -0.16 -0.00    +0.028 A  
DOCKED: ATOM     27  C   UNL     1      21.075  25.336  15.572 -0.20 -0.01    +0.042 A  
DOCKED: ATOM     28 CL   UNL     1      22.459  25.990  14.782 -0.23 +0.02    -0.084 Cl 
DOCKED: ATOM     29  C   UNL     1      21.139  24.066  16.134 -0.23 -0.00    +0.020 A  
DOCKED: ATOM     30  C   UNL     1      20.022  23.546  16.789 -0.21 -0.00    +0.010 A  
DOCKED: ATOM     31  C   UNL     1      18.836  24.294  16.887 -0.23 +0.00    -0.016 A  
DOCKED: ATOM     32  C   UNL     1      17.703  23.775  17.530 -0.24 -0.01    +0.037 A  
DOCKED: ENDBRANCH  19  22
DOCKED: ENDBRANCH  17  19
DOCKED: ENDBRANCH   4  17
DOCKED: TORSDOF 5
DOCKED: TER
DOCKED: ENDMDL
________________________________________________________________________________


    FINAL DOCKED STATE:
    ________________________


Run:   43 / 50
Time taken for this run:   0.000s

DOCKED: MODEL        43
DOCKED: USER    Run = 43
DOCKED: USER
DOCKED: USER    Estimated Free Energy of Binding    =  -5.06 kcal/mol  [=(1)+(2)+(3)-(4)]
DOCKED: USER
DOCKED: USER    (1) Final Intermolecular Energy     =  -6.55 kcal/mol
DOCKED: USER        vdW + Hbond + desolv Energy     =  -6.12 kcal/mol
DOCKED: USER        Electrostatic Energy            =  -0.44 kcal/mol
DOCKED: USER        Moving Ligand-Fixed Receptor    =  -6.55 kcal/mol
DOCKED: USER        Moving Ligand-Moving Receptor   =  +0.00 kcal/mol
DOCKED: USER    (2) Final Total Internal Energy     =  -1.82 kcal/mol
DOCKED: USER    (3) Torsional Free Energy           =  +1.49 kcal/mol
DOCKED: USER    (4) Unbound System's Energy         =  -1.82 kcal/mol
DOCKED: USER
DOCKED: USER
DOCKED: REMARK  Name = 
DOCKED: REMARK  6 active torsions:
DOCKED: REMARK  status: ('A' for Active; 'I' for Inactive)
DOCKED: REMARK    1  A    between atoms: C_1  and  C_2
DOCKED: REMARK    2  A    between atoms: C_2  and  C_3
DOCKED: REMARK    3  A    between atoms: C_2  and  N_11
DOCKED: REMARK    4  A    between atoms: C_14  and  N_15
DOCKED: REMARK    5  A    between atoms: N_15  and  S_16
DOCKED: REMARK    6  A    between atoms: S_16  and  C_19
DOCKED: REMARK                            x       y       z     vdW  Elec       q    Type
DOCKED: REMARK                         _______ _______ _______ _____ _____    ______ ____
DOCKED: USER                              x       y       z     vdW  Elec       q    Type
DOCKED: USER                           _______ _______ _______ _____ _____    ______ ____
DOCKED: ROOT
DOCKED: ATOM      1  N   UNL     1      20.986  30.341  12.218 -0.06 +0.08    -0.289 N  
DOCKED: ATOM      2  C   UNL     1      20.213  29.894  11.081 -0.24 -0.04    +0.110 C  
DOCKED: ATOM      3  C   UNL     1      18.784  30.354  11.396 -0.37 -0.04    +0.049 C  
DOCKED: ATOM      4  C   UNL     1      18.766  30.383  12.922 -0.20 -0.12    +0.164 C  
DOCKED: ATOM      5  C   UNL     1      20.154  30.917  13.158 -0.07 -0.09    +0.235 C  
DOCKED: ATOM      6  O   UNL     1      20.535  31.695  14.006 -0.01 +0.08    -0.274 OA 
DOCKED: ENDROOT
DOCKED: BRANCH   1   8
DOCKED: ATOM      7  C   UNL     1      23.225  29.580  12.917 -0.12 -0.01    +0.038 C  
DOCKED: ATOM      8  C   UNL     1      22.417  30.658  12.180 -0.09 -0.03    +0.159 C  
DOCKED: BRANCH   8   9
DOCKED: ATOM      9  C   UNL     1      22.922  30.836  10.702 -0.16 -0.04    +0.236 C  
DOCKED: ATOM     10  O   UNL     1      23.733  30.039  10.219 -0.18 +0.06    -0.274 OA 
DOCKED: ATOM     11  N   UNL     1      22.534  31.958   9.969 -0.08 +0.02    -0.296 N  
DOCKED: ATOM     12  C   UNL     1      21.705  33.077  10.418 -0.07 -0.02    +0.136 C  
DOCKED: ATOM     13  C   UNL     1      20.342  33.023   9.717 -0.13 -0.01    +0.179 C  
DOCKED: ATOM     14  O   UNL     1      20.502  33.033   8.289 -0.55 -0.22    -0.377 OA 
DOCKED: ATOM     15  C   UNL     1      21.286  31.900   7.861 -0.09 +0.08    +0.179 C  
DOCKED: ATOM     16  C   UNL     1      22.680  31.937   8.508 -0.28 +0.01    +0.136 C  
DOCKED: ENDBRANCH   8   9
DOCKED: ENDBRANCH   1   8
DOCKED: BRANCH   4  17
DOCKED: ATOM     17  N   UNL     1      17.645  31.120  13.513 -0.08 +0.20    -0.178 NA 
DOCKED: ATOM     18  H   UNL     1      16.765  31.112  12.994 -0.38 -0.39    +0.149 HD 
DOCKED: BRANCH  17  19
DOCKED: ATOM     19  S   UNL     1      17.296  30.734  15.142 -0.22 -0.02    +0.059 S  
DOCKED: ATOM     20  O   UNL     1      18.213  31.537  15.927 -0.03 +0.04    -0.153 OA 
DOCKED: ATOM     21  O   UNL     1      15.856  30.862  15.315 -0.48 +0.01    -0.153 OA 
DOCKED: BRANCH  19  22
DOCKED: ATOM     22  C   UNL     1      17.774  29.044  15.341 -0.18 -0.01    +0.106 A  
DOCKED: ATOM     23  C   UNL     1      16.799  28.093  15.641 -0.23 +0.01    +0.029 A  
DOCKED: ATOM     24  C   UNL     1      17.192  26.791  15.961 -0.29 +0.00    +0.010 A  
DOCKED: ATOM     25  C   UNL     1      18.554  26.439  16.011 -0.24 -0.00    -0.016 A  
DOCKED: ATOM     26  C   UNL     1      18.964  25.154  16.399 -0.23 -0.00    +0.028 A  
DOCKED: ATOM     27  C   UNL     1      20.321  24.841  16.486 -0.19 -0.01    +0.042 A  
DOCKED: ATOM     28 CL   UNL     1      20.801  23.254  16.955 -0.32 +0.01    -0.084 Cl 
DOCKED: ATOM     29  C   UNL     1      21.289  25.797  16.201 -0.14 -0.00    +0.020 A  
DOCKED: ATOM     30  C   UNL     1      20.897  27.076  15.804 -0.13 -0.00    +0.010 A  
DOCKED: ATOM     31  C   UNL     1      19.536  27.404  15.686 -0.16 +0.00    -0.016 A  
DOCKED: ATOM     32  C   UNL     1      19.131  28.691  15.303 -0.13 -0.01    +0.037 A  
DOCKED: ENDBRANCH  19  22
DOCKED: ENDBRANCH  17  19
DOCKED: ENDBRANCH   4  17
DOCKED: TORSDOF 5
DOCKED: TER
DOCKED: ENDMDL
________________________________________________________________________________


    FINAL DOCKED STATE:
    ________________________


Run:   44 / 50
Time taken for this run:   0.000s

DOCKED: MODEL        44
DOCKED: USER    Run = 44
DOCKED: USER
DOCKED: USER    Estimated Free Energy of Binding    =  -4.92 kcal/mol  [=(1)+(2)+(3)-(4)]
DOCKED: USER
DOCKED: USER    (1) Final Intermolecular Energy     =  -6.41 kcal/mol
DOCKED: USER        vdW + Hbond + desolv Energy     =  -6.24 kcal/mol
DOCKED: USER        Electrostatic Energy            =  -0.17 kcal/mol
DOCKED: USER        Moving Ligand-Fixed Receptor    =  -6.41 kcal/mol
DOCKED: USER        Moving Ligand-Moving Receptor   =  +0.00 kcal/mol
DOCKED: USER    (2) Final Total Internal Energy     =  -2.29 kcal/mol
DOCKED: USER    (3) Torsional Free Energy           =  +1.49 kcal/mol
DOCKED: USER    (4) Unbound System's Energy         =  -2.29 kcal/mol
DOCKED: USER
DOCKED: USER
DOCKED: REMARK  Name = 
DOCKED: REMARK  6 active torsions:
DOCKED: REMARK  status: ('A' for Active; 'I' for Inactive)
DOCKED: REMARK    1  A    between atoms: C_1  and  C_2
DOCKED: REMARK    2  A    between atoms: C_2  and  C_3
DOCKED: REMARK    3  A    between atoms: C_2  and  N_11
DOCKED: REMARK    4  A    between atoms: C_14  and  N_15
DOCKED: REMARK    5  A    between atoms: N_15  and  S_16
DOCKED: REMARK    6  A    between atoms: S_16  and  C_19
DOCKED: REMARK                            x       y       z     vdW  Elec       q    Type
DOCKED: REMARK                         _______ _______ _______ _____ _____    ______ ____
DOCKED: USER                              x       y       z     vdW  Elec       q    Type
DOCKED: USER                           _______ _______ _______ _____ _____    ______ ____
DOCKED: ROOT
DOCKED: ATOM      1  N   UNL     1      13.369  23.819  18.137 -0.08 +0.01    -0.289 N  
DOCKED: ATOM      2  C   UNL     1      14.388  22.849  18.473 -0.19 -0.01    +0.110 C  
DOCKED: ATOM      3  C   UNL     1      14.200  21.735  17.435 -0.36 -0.01    +0.049 C  
DOCKED: ATOM      4  C   UNL     1      12.718  21.847  17.083 -0.26 -0.01    +0.164 C  
DOCKED: ATOM      5  C   UNL     1      12.590  23.347  17.099 -0.14 +0.01    +0.235 C  
DOCKED: ATOM      6  O   UNL     1      11.933  24.061  16.373 -0.15 -0.05    -0.274 OA 
DOCKED: ENDROOT
DOCKED: BRANCH   1   8
DOCKED: ATOM      7  C   UNL     1      14.510  25.915  17.515 -0.14 +0.01    +0.038 C  
DOCKED: ATOM      8  C   UNL     1      13.460  25.254  18.421 -0.11 -0.00    +0.159 C  
DOCKED: BRANCH   8   9
DOCKED: ATOM      9  C   UNL     1      12.060  25.955  18.275 -0.13 -0.02    +0.236 C  
DOCKED: ATOM     10  O   UNL     1      11.905  26.878  17.470 -0.37 -0.03    -0.274 OA 
DOCKED: ATOM     11  N   UNL     1      11.018  25.602  19.132 -0.04 +0.10    -0.296 N  
DOCKED: ATOM     12  C   UNL     1      11.053  24.643  20.237 -0.02 -0.04    +0.136 C  
DOCKED: ATOM     13  C   UNL     1      10.230  23.403  19.871 -0.02 -0.05    +0.179 C  
DOCKED: ATOM     14  O   UNL     1       8.880  23.766  19.540 -0.01 +0.14    -0.377 OA 
DOCKED: ATOM     15  C   UNL     1       8.862  24.678  18.422 -0.12 -0.11    +0.179 C  
DOCKED: ATOM     16  C   UNL     1       9.642  25.959  18.762 -0.11 -0.11    +0.136 C  
DOCKED: ENDBRANCH   8   9
DOCKED: ENDBRANCH   1   8
DOCKED: BRANCH   4  17
DOCKED: ATOM     17  N   UNL     1      12.319  21.143  15.860 -0.32 +0.01    -0.178 NA 
DOCKED: ATOM     18  H   UNL     1      13.057  20.659  15.346 +0.05 -0.02    +0.149 HD 
DOCKED: BRANCH  17  19
DOCKED: ATOM     19  S   UNL     1      11.007  20.060  16.036 -0.50 -0.01    +0.059 S  
DOCKED: ATOM     20  O   UNL     1      11.077  19.189  14.879 -0.52 +0.03    -0.153 OA 
DOCKED: ATOM     21  O   UNL     1      11.076  19.517  17.384 -0.17 +0.02    -0.153 OA 
DOCKED: BRANCH  19  22
DOCKED: ATOM     22  C   UNL     1       9.552  21.048  15.863 -0.22 -0.01    +0.106 A  
DOCKED: ATOM     23  C   UNL     1       9.684  22.419  15.645 -0.30 -0.00    +0.029 A  
DOCKED: ATOM     24  C   UNL     1       8.545  23.227  15.673 -0.29 -0.00    +0.010 A  
DOCKED: ATOM     25  C   UNL     1       7.276  22.680  15.944 -0.25 +0.01    -0.016 A  
DOCKED: ATOM     26  C   UNL     1       6.135  23.490  16.044 -0.24 -0.01    +0.028 A  
DOCKED: ATOM     27  C   UNL     1       4.896  22.931  16.359 -0.19 -0.02    +0.042 A  
DOCKED: ATOM     28 CL   UNL     1       3.506  23.943  16.466 -0.18 +0.04    -0.084 Cl 
DOCKED: ATOM     29  C   UNL     1       4.773  21.566  16.591 -0.14 -0.01    +0.020 A  
DOCKED: ATOM     30  C   UNL     1       5.896  20.746  16.486 -0.17 -0.00    +0.010 A  
DOCKED: ATOM     31  C   UNL     1       7.148  21.285  16.144 -0.26 +0.00    -0.016 A  
DOCKED: ATOM     32  C   UNL     1       8.287  20.472  16.051 -0.30 -0.01    +0.037 A  
DOCKED: ENDBRANCH  19  22
DOCKED: ENDBRANCH  17  19
DOCKED: ENDBRANCH   4  17
DOCKED: TORSDOF 5
DOCKED: TER
DOCKED: ENDMDL
________________________________________________________________________________


    FINAL DOCKED STATE:
    ________________________


Run:   45 / 50
Time taken for this run:   0.000s

DOCKED: MODEL        45
DOCKED: USER    Run = 45
DOCKED: USER
DOCKED: USER    Estimated Free Energy of Binding    =  -5.07 kcal/mol  [=(1)+(2)+(3)-(4)]
DOCKED: USER
DOCKED: USER    (1) Final Intermolecular Energy     =  -6.56 kcal/mol
DOCKED: USER        vdW + Hbond + desolv Energy     =  -6.43 kcal/mol
DOCKED: USER        Electrostatic Energy            =  -0.14 kcal/mol
DOCKED: USER        Moving Ligand-Fixed Receptor    =  -6.56 kcal/mol
DOCKED: USER        Moving Ligand-Moving Receptor   =  +0.00 kcal/mol
DOCKED: USER    (2) Final Total Internal Energy     =  -1.57 kcal/mol
DOCKED: USER    (3) Torsional Free Energy           =  +1.49 kcal/mol
DOCKED: USER    (4) Unbound System's Energy         =  -1.57 kcal/mol
DOCKED: USER
DOCKED: USER
DOCKED: REMARK  Name = 
DOCKED: REMARK  6 active torsions:
DOCKED: REMARK  status: ('A' for Active; 'I' for Inactive)
DOCKED: REMARK    1  A    between atoms: C_1  and  C_2
DOCKED: REMARK    2  A    between atoms: C_2  and  C_3
DOCKED: REMARK    3  A    between atoms: C_2  and  N_11
DOCKED: REMARK    4  A    between atoms: C_14  and  N_15
DOCKED: REMARK    5  A    between atoms: N_15  and  S_16
DOCKED: REMARK    6  A    between atoms: S_16  and  C_19
DOCKED: REMARK                            x       y       z     vdW  Elec       q    Type
DOCKED: REMARK                         _______ _______ _______ _____ _____    ______ ____
DOCKED: USER                              x       y       z     vdW  Elec       q    Type
DOCKED: USER                           _______ _______ _______ _____ _____    ______ ____
DOCKED: ROOT
DOCKED: ATOM      1  N   UNL     1      15.269  23.553  18.872 -0.07 +0.03    -0.289 N  
DOCKED: ATOM      2  C   UNL     1      15.989  22.886  17.810 -0.25 -0.02    +0.110 C  
DOCKED: ATOM      3  C   UNL     1      14.913  22.063  17.089 -0.31 -0.01    +0.049 C  
DOCKED: ATOM      4  C   UNL     1      13.888  21.806  18.191 -0.23 -0.02    +0.164 C  
DOCKED: ATOM      5  C   UNL     1      13.950  23.143  18.880 -0.09 -0.02    +0.235 C  
DOCKED: ATOM      6  O   UNL     1      13.051  23.782  19.381 -0.03 +0.04    -0.274 OA 
DOCKED: ENDROOT
DOCKED: BRANCH   1   8
DOCKED: ATOM      7  C   UNL     1      15.446  24.799  20.993 -0.02 -0.00    +0.038 C  
DOCKED: ATOM      8  C   UNL     1      15.667  24.830  19.473 -0.04 -0.02    +0.159 C  
DOCKED: BRANCH   8   9
DOCKED: ATOM      9  C   UNL     1      17.158  25.185  19.122 -0.03 -0.02    +0.236 C  
DOCKED: ATOM     10  O   UNL     1      18.088  24.638  19.722 -0.02 +0.03    -0.274 OA 
DOCKED: ATOM     11  N   UNL     1      17.429  26.200  18.203 -0.02 +0.02    -0.296 N  
DOCKED: ATOM     12  C   UNL     1      16.468  27.056  17.506 -0.13 +0.00    +0.136 C  
DOCKED: ATOM     13  C   UNL     1      16.432  26.687  16.019 -0.23 +0.04    +0.179 C  
DOCKED: ATOM     14  O   UNL     1      17.742  26.791  15.436 -0.62 -0.13    -0.377 OA 
DOCKED: ATOM     15  C   UNL     1      18.665  25.909  16.108 -0.22 -0.01    +0.179 C  
DOCKED: ATOM     16  C   UNL     1      18.765  26.272  17.599 -0.08 -0.01    +0.136 C  
DOCKED: ENDBRANCH   8   9
DOCKED: ENDBRANCH   1   8
DOCKED: BRANCH   4  17
DOCKED: ATOM     17  N   UNL     1      12.579  21.343  17.721 -0.16 +0.02    -0.178 NA 
DOCKED: ATOM     18  H   UNL     1      11.783  21.510  18.339 +0.04 -0.02    +0.149 HD 
DOCKED: BRANCH  17  19
DOCKED: ATOM     19  S   UNL     1      12.142  21.865  16.151 -0.47 -0.00    +0.059 S  
DOCKED: ATOM     20  O   UNL     1      12.327  23.303  16.165 -0.22 -0.02    -0.153 OA 
DOCKED: ATOM     21  O   UNL     1      12.864  21.028  15.204 -0.50 +0.01    -0.153 OA 
DOCKED: BRANCH  19  22
DOCKED: ATOM     22  C   UNL     1      10.406  21.559  16.018 -0.24 -0.01    +0.106 A  
DOCKED: ATOM     23  C   UNL     1       9.539  22.636  15.838 -0.33 -0.01    +0.029 A  
DOCKED: ATOM     24  C   UNL     1       8.160  22.419  15.897 -0.32 -0.00    +0.010 A  
DOCKED: ATOM     25  C   UNL     1       7.641  21.138  16.162 -0.28 +0.00    -0.016 A  
DOCKED: ATOM     26  C   UNL     1       6.261  20.920  16.294 -0.18 -0.01    +0.028 A  
DOCKED: ATOM     27  C   UNL     1       5.772  19.650  16.602 -0.11 -0.00    +0.042 A  
DOCKED: ATOM     28 CL   UNL     1       4.073  19.403  16.749 -0.18 +0.01    -0.084 Cl 
DOCKED: ATOM     29  C   UNL     1       6.642  18.583  16.795 -0.23 -0.00    +0.020 A  
DOCKED: ATOM     30  C   UNL     1       8.016  18.781  16.658 -0.25 -0.00    +0.010 A  
DOCKED: ATOM     31  C   UNL     1       8.527  20.046  16.323 -0.30 +0.00    -0.016 A  
DOCKED: ATOM     32  C   UNL     1       9.907  20.260  16.198 -0.33 -0.00    +0.037 A  
DOCKED: ENDBRANCH  19  22
DOCKED: ENDBRANCH  17  19
DOCKED: ENDBRANCH   4  17
DOCKED: TORSDOF 5
DOCKED: TER
DOCKED: ENDMDL
________________________________________________________________________________


    FINAL DOCKED STATE:
    ________________________


Run:   46 / 50
Time taken for this run:   0.000s

DOCKED: MODEL        46
DOCKED: USER    Run = 46
DOCKED: USER
DOCKED: USER    Estimated Free Energy of Binding    =  -5.59 kcal/mol  [=(1)+(2)+(3)-(4)]
DOCKED: USER
DOCKED: USER    (1) Final Intermolecular Energy     =  -7.08 kcal/mol
DOCKED: USER        vdW + Hbond + desolv Energy     =  -7.13 kcal/mol
DOCKED: USER        Electrostatic Energy            =  +0.04 kcal/mol
DOCKED: USER        Moving Ligand-Fixed Receptor    =  -7.08 kcal/mol
DOCKED: USER        Moving Ligand-Moving Receptor   =  +0.00 kcal/mol
DOCKED: USER    (2) Final Total Internal Energy     =  -1.95 kcal/mol
DOCKED: USER    (3) Torsional Free Energy           =  +1.49 kcal/mol
DOCKED: USER    (4) Unbound System's Energy         =  -1.95 kcal/mol
DOCKED: USER
DOCKED: USER
DOCKED: REMARK  Name = 
DOCKED: REMARK  6 active torsions:
DOCKED: REMARK  status: ('A' for Active; 'I' for Inactive)
DOCKED: REMARK    1  A    between atoms: C_1  and  C_2
DOCKED: REMARK    2  A    between atoms: C_2  and  C_3
DOCKED: REMARK    3  A    between atoms: C_2  and  N_11
DOCKED: REMARK    4  A    between atoms: C_14  and  N_15
DOCKED: REMARK    5  A    between atoms: N_15  and  S_16
DOCKED: REMARK    6  A    between atoms: S_16  and  C_19
DOCKED: REMARK                            x       y       z     vdW  Elec       q    Type
DOCKED: REMARK                         _______ _______ _______ _____ _____    ______ ____
DOCKED: USER                              x       y       z     vdW  Elec       q    Type
DOCKED: USER                           _______ _______ _______ _____ _____    ______ ____
DOCKED: ROOT
DOCKED: ATOM      1  N   UNL     1      11.616  20.835  16.662 -0.16 +0.04    -0.289 N  
DOCKED: ATOM      2  C   UNL     1      11.416  21.239  18.036 -0.15 -0.02    +0.110 C  
DOCKED: ATOM      3  C   UNL     1      12.699  22.001  18.391 -0.17 -0.01    +0.049 C  
DOCKED: ATOM      4  C   UNL     1      13.736  21.371  17.464 -0.22 -0.03    +0.164 C  
DOCKED: ATOM      5  C   UNL     1      12.877  21.205  16.238 -0.20 -0.03    +0.235 C  
DOCKED: ATOM      6  O   UNL     1      13.182  21.342  15.073 -0.32 +0.01    -0.274 OA 
DOCKED: ENDROOT
DOCKED: BRANCH   1   8
DOCKED: ATOM      7  C   UNL     1      10.178  19.100  15.660 -0.44 -0.01    +0.038 C  
DOCKED: ATOM      8  C   UNL     1      10.536  20.593  15.700 -0.25 -0.02    +0.159 C  
DOCKED: BRANCH   8   9
DOCKED: ATOM      9  C   UNL     1       9.274  21.472  16.026 -0.24 -0.04    +0.236 C  
DOCKED: ATOM     10  O   UNL     1       8.208  20.939  16.348 -0.19 +0.06    -0.274 OA 
DOCKED: ATOM     11  N   UNL     1       9.331  22.855  15.848 -0.21 +0.06    -0.296 N  
DOCKED: ATOM     12  C   UNL     1      10.450  23.647  15.337 -0.38 +0.00    +0.136 C  
DOCKED: ATOM     13  C   UNL     1      11.056  24.478  16.472 -0.22 +0.00    +0.179 C  
DOCKED: ATOM     14  O   UNL     1      10.058  25.317  17.078 -0.17 +0.18    -0.377 OA 
DOCKED: ATOM     15  C   UNL     1       8.984  24.517  17.614 -0.15 -0.10    +0.179 C  
DOCKED: ATOM     16  C   UNL     1       8.318  23.697  16.498 -0.22 -0.06    +0.136 C  
DOCKED: ENDBRANCH   8   9
DOCKED: ENDBRANCH   1   8
DOCKED: BRANCH   4  17
DOCKED: ATOM     17  N   UNL     1      14.982  22.130  17.323 -0.28 +0.04    -0.178 NA 
DOCKED: ATOM     18  H   UNL     1      15.353  22.234  16.378 -0.19 -0.03    +0.149 HD 
DOCKED: BRANCH  17  19
DOCKED: ATOM     19  S   UNL     1      14.983  23.674  18.060 -0.28 -0.00    +0.059 S  
DOCKED: ATOM     20  O   UNL     1      13.865  24.379  17.463 -0.15 -0.01    -0.153 OA 
DOCKED: ATOM     21  O   UNL     1      15.049  23.463  19.498 -0.07 +0.02    -0.153 OA 
DOCKED: BRANCH  19  22
DOCKED: ATOM     22  C   UNL     1      16.462  24.464  17.502 -0.22 -0.00    +0.106 A  
DOCKED: ATOM     23  C   UNL     1      16.379  25.732  16.929 -0.22 +0.00    +0.029 A  
DOCKED: ATOM     24  C   UNL     1      17.516  26.290  16.339 -0.29 +0.00    +0.010 A  
DOCKED: ATOM     25  C   UNL     1      18.729  25.577  16.291 -0.25 +0.00    -0.016 A  
DOCKED: ATOM     26  C   UNL     1      19.859  26.096  15.639 -0.16 -0.00    +0.028 A  
DOCKED: ATOM     27  C   UNL     1      21.036  25.351  15.565 -0.20 -0.01    +0.042 A  
DOCKED: ATOM     28 CL   UNL     1      22.413  26.012  14.768 -0.24 +0.02    -0.084 Cl 
DOCKED: ATOM     29  C   UNL     1      21.108  24.080  16.123 -0.23 -0.01    +0.020 A  
DOCKED: ATOM     30  C   UNL     1      19.997  23.554  16.783 -0.21 -0.00    +0.010 A  
DOCKED: ATOM     31  C   UNL     1      18.809  24.298  16.891 -0.23 +0.00    -0.016 A  
DOCKED: ATOM     32  C   UNL     1      17.682  23.773  17.539 -0.24 -0.01    +0.037 A  
DOCKED: ENDBRANCH  19  22
DOCKED: ENDBRANCH  17  19
DOCKED: ENDBRANCH   4  17
DOCKED: TORSDOF 5
DOCKED: TER
DOCKED: ENDMDL
________________________________________________________________________________


    FINAL DOCKED STATE:
    ________________________


Run:   47 / 50
Time taken for this run:   0.000s

DOCKED: MODEL        47
DOCKED: USER    Run = 47
DOCKED: USER
DOCKED: USER    Estimated Free Energy of Binding    =  -4.80 kcal/mol  [=(1)+(2)+(3)-(4)]
DOCKED: USER
DOCKED: USER    (1) Final Intermolecular Energy     =  -6.30 kcal/mol
DOCKED: USER        vdW + Hbond + desolv Energy     =  -5.83 kcal/mol
DOCKED: USER        Electrostatic Energy            =  -0.46 kcal/mol
DOCKED: USER        Moving Ligand-Fixed Receptor    =  -6.30 kcal/mol
DOCKED: USER        Moving Ligand-Moving Receptor   =  +0.00 kcal/mol
DOCKED: USER    (2) Final Total Internal Energy     =  -2.35 kcal/mol
DOCKED: USER    (3) Torsional Free Energy           =  +1.49 kcal/mol
DOCKED: USER    (4) Unbound System's Energy         =  -2.35 kcal/mol
DOCKED: USER
DOCKED: USER
DOCKED: REMARK  Name = 
DOCKED: REMARK  6 active torsions:
DOCKED: REMARK  status: ('A' for Active; 'I' for Inactive)
DOCKED: REMARK    1  A    between atoms: C_1  and  C_2
DOCKED: REMARK    2  A    between atoms: C_2  and  C_3
DOCKED: REMARK    3  A    between atoms: C_2  and  N_11
DOCKED: REMARK    4  A    between atoms: C_14  and  N_15
DOCKED: REMARK    5  A    between atoms: N_15  and  S_16
DOCKED: REMARK    6  A    between atoms: S_16  and  C_19
DOCKED: REMARK                            x       y       z     vdW  Elec       q    Type
DOCKED: REMARK                         _______ _______ _______ _____ _____    ______ ____
DOCKED: USER                              x       y       z     vdW  Elec       q    Type
DOCKED: USER                           _______ _______ _______ _____ _____    ______ ____
DOCKED: ROOT
DOCKED: ATOM      1  N   UNL     1      10.228  23.806  17.588 -0.08 +0.07    -0.289 N  
DOCKED: ATOM      2  C   UNL     1       9.409  24.087  18.746 -0.09 -0.04    +0.110 C  
DOCKED: ATOM      3  C   UNL     1       9.420  25.618  18.848 -0.13 -0.04    +0.049 C  
DOCKED: ATOM      4  C   UNL     1      10.751  25.991  18.200 -0.16 -0.07    +0.164 C  
DOCKED: ATOM      5  C   UNL     1      10.756  24.979  17.085 -0.20 -0.04    +0.235 C  
DOCKED: ATOM      6  O   UNL     1      11.149  25.106  15.946 -0.18 -0.08    -0.274 OA 
DOCKED: ENDROOT
DOCKED: BRANCH   1   8
DOCKED: ATOM      7  C   UNL     1       9.016  22.834  15.673 -0.39 -0.01    +0.038 C  
DOCKED: ATOM      8  C   UNL     1      10.095  22.615  16.743 -0.20 -0.03    +0.159 C  
DOCKED: BRANCH   8   9
DOCKED: ATOM      9  C   UNL     1      11.471  22.221  16.092 -0.25 -0.01    +0.236 C  
DOCKED: ATOM     10  O   UNL     1      11.695  22.476  14.905 -0.22 -0.06    -0.274 OA 
DOCKED: ATOM     11  N   UNL     1      12.400  21.486  16.830 -0.17 +0.03    -0.296 N  
DOCKED: ATOM     12  C   UNL     1      12.254  20.969  18.190 -0.16 -0.02    +0.136 C  
DOCKED: ATOM     13  C   UNL     1      13.172  21.746  19.140 -0.11 -0.02    +0.179 C  
DOCKED: ATOM     14  O   UNL     1      14.538  21.677  18.700 -0.12 +0.05    -0.377 OA 
DOCKED: ATOM     15  C   UNL     1      14.670  22.230  17.374 -0.28 -0.03    +0.179 C  
DOCKED: ATOM     16  C   UNL     1      13.797  21.450  16.378 -0.24 -0.02    +0.136 C  
DOCKED: ENDBRANCH   8   9
DOCKED: ENDBRANCH   1   8
DOCKED: BRANCH   4  17
DOCKED: ATOM     17  N   UNL     1      10.885  27.405  17.835 -0.13 +0.13    -0.178 NA 
DOCKED: ATOM     18  H   UNL     1      10.085  28.008  18.030 -0.27 -0.28    +0.149 HD 
DOCKED: BRANCH  17  19
DOCKED: ATOM     19  S   UNL     1      12.286  28.183  18.432 -0.20 -0.01    +0.059 S  
DOCKED: ATOM     20  O   UNL     1      12.531  29.279  17.514 -0.35 -0.05    -0.153 OA 
DOCKED: ATOM     21  O   UNL     1      12.069  28.431  19.849 -0.04 +0.04    -0.153 OA 
DOCKED: BRANCH  19  22
DOCKED: ATOM     22  C   UNL     1      13.600  27.019  18.222 -0.12 +0.01    +0.106 A  
DOCKED: ATOM     23  C   UNL     1      13.735  25.976  19.136 -0.06 -0.00    +0.029 A  
DOCKED: ATOM     24  C   UNL     1      14.862  25.153  19.072 -0.07 -0.00    +0.010 A  
DOCKED: ATOM     25  C   UNL     1      15.870  25.383  18.117 -0.13 +0.00    -0.016 A  
DOCKED: ATOM     26  C   UNL     1      17.040  24.608  18.086 -0.17 -0.00    +0.028 A  
DOCKED: ATOM     27  C   UNL     1      18.047  24.884  17.160 -0.24 -0.00    +0.042 A  
DOCKED: ATOM     28 CL   UNL     1      19.470  23.914  17.134 -0.32 +0.02    -0.084 Cl 
DOCKED: ATOM     29  C   UNL     1      17.914  25.936  16.260 -0.28 +0.00    +0.020 A  
DOCKED: ATOM     30  C   UNL     1      16.753  26.709  16.272 -0.30 +0.00    +0.010 A  
DOCKED: ATOM     31  C   UNL     1      15.716  26.432  17.180 -0.19 -0.00    -0.016 A  
DOCKED: ATOM     32  C   UNL     1      14.551  27.212  17.210 +0.01 +0.01    +0.037 A  
DOCKED: ENDBRANCH  19  22
DOCKED: ENDBRANCH  17  19
DOCKED: ENDBRANCH   4  17
DOCKED: TORSDOF 5
DOCKED: TER
DOCKED: ENDMDL
________________________________________________________________________________


    FINAL DOCKED STATE:
    ________________________


Run:   48 / 50
Time taken for this run:   0.000s

DOCKED: MODEL        48
DOCKED: USER    Run = 48
DOCKED: USER
DOCKED: USER    Estimated Free Energy of Binding    =  -4.59 kcal/mol  [=(1)+(2)+(3)-(4)]
DOCKED: USER
DOCKED: USER    (1) Final Intermolecular Energy     =  -6.08 kcal/mol
DOCKED: USER        vdW + Hbond + desolv Energy     =  -5.67 kcal/mol
DOCKED: USER        Electrostatic Energy            =  -0.42 kcal/mol
DOCKED: USER        Moving Ligand-Fixed Receptor    =  -6.08 kcal/mol
DOCKED: USER        Moving Ligand-Moving Receptor   =  +0.00 kcal/mol
DOCKED: USER    (2) Final Total Internal Energy     =  -2.54 kcal/mol
DOCKED: USER    (3) Torsional Free Energy           =  +1.49 kcal/mol
DOCKED: USER    (4) Unbound System's Energy         =  -2.54 kcal/mol
DOCKED: USER
DOCKED: USER
DOCKED: REMARK  Name = 
DOCKED: REMARK  6 active torsions:
DOCKED: REMARK  status: ('A' for Active; 'I' for Inactive)
DOCKED: REMARK    1  A    between atoms: C_1  and  C_2
DOCKED: REMARK    2  A    between atoms: C_2  and  C_3
DOCKED: REMARK    3  A    between atoms: C_2  and  N_11
DOCKED: REMARK    4  A    between atoms: C_14  and  N_15
DOCKED: REMARK    5  A    between atoms: N_15  and  S_16
DOCKED: REMARK    6  A    between atoms: S_16  and  C_19
DOCKED: REMARK                            x       y       z     vdW  Elec       q    Type
DOCKED: REMARK                         _______ _______ _______ _____ _____    ______ ____
DOCKED: USER                              x       y       z     vdW  Elec       q    Type
DOCKED: USER                           _______ _______ _______ _____ _____    ______ ____
DOCKED: ROOT
DOCKED: ATOM      1  N   UNL     1      10.402  23.511  17.660 -0.06 +0.06    -0.289 N  
DOCKED: ATOM      2  C   UNL     1       9.476  23.912  18.696 -0.09 -0.04    +0.110 C  
DOCKED: ATOM      3  C   UNL     1       9.527  25.446  18.669 -0.14 -0.03    +0.049 C  
DOCKED: ATOM      4  C   UNL     1      10.930  25.729  18.137 -0.16 -0.06    +0.164 C  
DOCKED: ATOM      5  C   UNL     1      11.018  24.623  17.119 -0.18 -0.03    +0.235 C  
DOCKED: ATOM      6  O   UNL     1      11.532  24.640  16.022 -0.03 -0.08    -0.274 OA 
DOCKED: ENDROOT
DOCKED: BRANCH   1   8
DOCKED: ATOM      7  C   UNL     1       9.277  22.368  15.786 -0.36 -0.01    +0.038 C  
DOCKED: ATOM      8  C   UNL     1      10.318  22.254  16.910 -0.18 -0.02    +0.159 C  
DOCKED: BRANCH   8   9
DOCKED: ATOM      9  C   UNL     1      11.723  21.833  16.344 -0.25 -0.01    +0.236 C  
DOCKED: ATOM     10  O   UNL     1      11.913  21.774  15.125 -0.28 -0.02    -0.274 OA 
DOCKED: ATOM     11  N   UNL     1      12.727  21.422  17.222 -0.15 +0.04    -0.296 N  
DOCKED: ATOM     12  C   UNL     1      12.643  21.285  18.676 -0.14 -0.02    +0.136 C  
DOCKED: ATOM     13  C   UNL     1      13.481  22.378  19.348 -0.08 -0.02    +0.179 C  
DOCKED: ATOM     14  O   UNL     1      14.845  22.324  18.897 -0.09 +0.05    -0.377 OA 
DOCKED: ATOM     15  C   UNL     1      14.911  22.504  17.467 -0.27 -0.03    +0.179 C  
DOCKED: ATOM     16  C   UNL     1      14.117  21.400  16.750 -0.23 -0.03    +0.136 C  
DOCKED: ENDBRANCH   8   9
DOCKED: ENDBRANCH   1   8
DOCKED: BRANCH   4  17
DOCKED: ATOM     17  N   UNL     1      11.148  27.101  17.671 -0.30 +0.07    -0.178 NA 
DOCKED: ATOM     18  H   UNL     1      10.338  27.722  17.673 -0.29 -0.23    +0.149 HD 
DOCKED: BRANCH  17  19
DOCKED: ATOM     19  S   UNL     1      12.445  27.929  18.418 -0.20 -0.00    +0.059 S  
DOCKED: ATOM     20  O   UNL     1      12.708  29.071  17.565 -0.28 -0.06    -0.153 OA 
DOCKED: ATOM     21  O   UNL     1      12.090  28.108  19.818 -0.04 +0.04    -0.153 OA 
DOCKED: BRANCH  19  22
DOCKED: ATOM     22  C   UNL     1      13.836  26.845  18.288 -0.11 +0.01    +0.106 A  
DOCKED: ATOM     23  C   UNL     1      14.163  26.028  19.369 -0.04 -0.00    +0.029 A  
DOCKED: ATOM     24  C   UNL     1      15.352  25.294  19.334 -0.05 -0.00    +0.010 A  
DOCKED: ATOM     25  C   UNL     1      16.230  25.393  18.238 -0.12 +0.00    -0.016 A  
DOCKED: ATOM     26  C   UNL     1      17.460  24.716  18.222 -0.14 -0.00    +0.028 A  
DOCKED: ATOM     27  C   UNL     1      18.334  24.865  17.145 -0.23 -0.01    +0.042 A  
DOCKED: ATOM     28 CL   UNL     1      19.834  24.017  17.142 -0.33 +0.02    -0.084 Cl 
DOCKED: ATOM     29  C   UNL     1      18.010  25.694  16.077 -0.28 -0.00    +0.020 A  
DOCKED: ATOM     30  C   UNL     1      16.787  26.366  16.074 -0.32 +0.00    +0.010 A  
DOCKED: ATOM     31  C   UNL     1      15.881  26.209  17.137 -0.20 -0.00    -0.016 A  
DOCKED: ATOM     32  C   UNL     1      14.655  26.891  17.151 -0.05 +0.01    +0.037 A  
DOCKED: ENDBRANCH  19  22
DOCKED: ENDBRANCH  17  19
DOCKED: ENDBRANCH   4  17
DOCKED: TORSDOF 5
DOCKED: TER
DOCKED: ENDMDL
________________________________________________________________________________


    FINAL DOCKED STATE:
    ________________________


Run:   49 / 50
Time taken for this run:   0.000s

DOCKED: MODEL        49
DOCKED: USER    Run = 49
DOCKED: USER
DOCKED: USER    Estimated Free Energy of Binding    =  -4.69 kcal/mol  [=(1)+(2)+(3)-(4)]
DOCKED: USER
DOCKED: USER    (1) Final Intermolecular Energy     =  -6.18 kcal/mol
DOCKED: USER        vdW + Hbond + desolv Energy     =  -6.11 kcal/mol
DOCKED: USER        Electrostatic Energy            =  -0.07 kcal/mol
DOCKED: USER        Moving Ligand-Fixed Receptor    =  -6.18 kcal/mol
DOCKED: USER        Moving Ligand-Moving Receptor   =  +0.00 kcal/mol
DOCKED: USER    (2) Final Total Internal Energy     =  -2.79 kcal/mol
DOCKED: USER    (3) Torsional Free Energy           =  +1.49 kcal/mol
DOCKED: USER    (4) Unbound System's Energy         =  -2.79 kcal/mol
DOCKED: USER
DOCKED: USER
DOCKED: REMARK  Name = 
DOCKED: REMARK  6 active torsions:
DOCKED: REMARK  status: ('A' for Active; 'I' for Inactive)
DOCKED: REMARK    1  A    between atoms: C_1  and  C_2
DOCKED: REMARK    2  A    between atoms: C_2  and  C_3
DOCKED: REMARK    3  A    between atoms: C_2  and  N_11
DOCKED: REMARK    4  A    between atoms: C_14  and  N_15
DOCKED: REMARK    5  A    between atoms: N_15  and  S_16
DOCKED: REMARK    6  A    between atoms: S_16  and  C_19
DOCKED: REMARK                            x       y       z     vdW  Elec       q    Type
DOCKED: REMARK                         _______ _______ _______ _____ _____    ______ ____
DOCKED: USER                              x       y       z     vdW  Elec       q    Type
DOCKED: USER                           _______ _______ _______ _____ _____    ______ ____
DOCKED: ROOT
DOCKED: ATOM      1  N   UNL     1       7.307  20.138  17.251 -0.07 +0.05    -0.289 N  
DOCKED: ATOM      2  C   UNL     1       6.269  21.144  17.233 -0.12 -0.03    +0.110 C  
DOCKED: ATOM      3  C   UNL     1       6.744  22.152  16.179 -0.28 -0.02    +0.049 C  
DOCKED: ATOM      4  C   UNL     1       8.262  21.994  16.219 -0.27 -0.05    +0.164 C  
DOCKED: ATOM      5  C   UNL     1       8.334  20.501  16.402 -0.21 -0.04    +0.235 C  
DOCKED: ATOM      6  O   UNL     1       9.126  19.715  15.931 -0.28 +0.04    -0.274 OA 
DOCKED: ENDROOT
DOCKED: BRANCH   1   8
DOCKED: ATOM      7  C   UNL     1       6.629  17.916  16.425 -0.26 -0.00    +0.038 C  
DOCKED: ATOM      8  C   UNL     1       7.102  18.737  17.633 -0.14 -0.02    +0.159 C  
DOCKED: BRANCH   8   9
DOCKED: ATOM      9  C   UNL     1       8.404  18.122  18.265 -0.12 -0.02    +0.236 C  
DOCKED: ATOM     10  O   UNL     1       8.788  16.997  17.931 -0.15 +0.01    -0.274 OA 
DOCKED: ATOM     11  N   UNL     1       9.067  18.806  19.284 -0.04 +0.04    -0.296 N  
DOCKED: ATOM     12  C   UNL     1       8.683  20.070  19.911 -0.03 -0.02    +0.136 C  
DOCKED: ATOM     13  C   UNL     1       9.665  21.172  19.496 -0.03 -0.03    +0.179 C  
DOCKED: ATOM     14  O   UNL     1      11.013  20.810  19.838 -0.02 +0.06    -0.377 OA 
DOCKED: ATOM     15  C   UNL     1      11.388  19.583  19.177 -0.07 -0.03    +0.179 C  
DOCKED: ATOM     16  C   UNL     1      10.454  18.438  19.600 -0.12 -0.02    +0.136 C  
DOCKED: ENDBRANCH   8   9
DOCKED: ENDBRANCH   1   8
DOCKED: BRANCH   4  17
DOCKED: ATOM     17  N   UNL     1       8.974  22.574  15.075 -0.22 +0.04    -0.178 NA 
DOCKED: ATOM     18  H   UNL     1       8.408  22.836  14.266 -0.38 -0.08    +0.149 HD 
DOCKED: BRANCH  17  19
DOCKED: ATOM     19  S   UNL     1      10.001  23.890  15.446 -0.51 -0.01    +0.059 S  
DOCKED: ATOM     20  O   UNL     1      10.428  24.411  14.161 -0.42 -0.02    -0.153 OA 
DOCKED: ATOM     21  O   UNL     1       9.291  24.734  16.395 -0.15 +0.07    -0.153 OA 
DOCKED: BRANCH  19  22
DOCKED: ATOM     22  C   UNL     1      11.420  23.179  16.222 -0.24 +0.00    +0.106 A  
DOCKED: ATOM     23  C   UNL     1      12.010  22.050  15.656 -0.35 +0.00    +0.029 A  
DOCKED: ATOM     24  C   UNL     1      13.025  21.388  16.351 -0.35 -0.00    +0.010 A  
DOCKED: ATOM     25  C   UNL     1      13.438  21.831  17.622 -0.28 +0.00    -0.016 A  
DOCKED: ATOM     26  C   UNL     1      14.407  21.135  18.361 -0.22 -0.00    +0.028 A  
DOCKED: ATOM     27  C   UNL     1      14.767  21.567  19.638 -0.15 -0.00    +0.042 A  
DOCKED: ATOM     28 CL   UNL     1      15.966  20.703  20.523 -0.18 +0.00    -0.084 Cl 
DOCKED: ATOM     29  C   UNL     1      14.165  22.685  20.205 -0.06 -0.00    +0.020 A  
DOCKED: ATOM     30  C   UNL     1      13.207  23.393  19.479 -0.06 -0.00    +0.010 A  
DOCKED: ATOM     31  C   UNL     1      12.848  22.990  18.181 -0.15 +0.00    -0.016 A  
DOCKED: ATOM     32  C   UNL     1      11.876  23.685  17.449 -0.17 -0.00    +0.037 A  
DOCKED: ENDBRANCH  19  22
DOCKED: ENDBRANCH  17  19
DOCKED: ENDBRANCH   4  17
DOCKED: TORSDOF 5
DOCKED: TER
DOCKED: ENDMDL
________________________________________________________________________________


    FINAL DOCKED STATE:
    ________________________


Run:   50 / 50
Time taken for this run:   0.000s

DOCKED: MODEL        50
DOCKED: USER    Run = 50
DOCKED: USER
DOCKED: USER    Estimated Free Energy of Binding    =  -4.78 kcal/mol  [=(1)+(2)+(3)-(4)]
DOCKED: USER
DOCKED: USER    (1) Final Intermolecular Energy     =  -6.27 kcal/mol
DOCKED: USER        vdW + Hbond + desolv Energy     =  -6.30 kcal/mol
DOCKED: USER        Electrostatic Energy            =  +0.02 kcal/mol
DOCKED: USER        Moving Ligand-Fixed Receptor    =  -6.27 kcal/mol
DOCKED: USER        Moving Ligand-Moving Receptor   =  +0.00 kcal/mol
DOCKED: USER    (2) Final Total Internal Energy     =  -2.04 kcal/mol
DOCKED: USER    (3) Torsional Free Energy           =  +1.49 kcal/mol
DOCKED: USER    (4) Unbound System's Energy         =  -2.04 kcal/mol
DOCKED: USER
DOCKED: USER
DOCKED: REMARK  Name = 
DOCKED: REMARK  6 active torsions:
DOCKED: REMARK  status: ('A' for Active; 'I' for Inactive)
DOCKED: REMARK    1  A    between atoms: C_1  and  C_2
DOCKED: REMARK    2  A    between atoms: C_2  and  C_3
DOCKED: REMARK    3  A    between atoms: C_2  and  N_11
DOCKED: REMARK    4  A    between atoms: C_14  and  N_15
DOCKED: REMARK    5  A    between atoms: N_15  and  S_16
DOCKED: REMARK    6  A    between atoms: S_16  and  C_19
DOCKED: REMARK                            x       y       z     vdW  Elec       q    Type
DOCKED: REMARK                         _______ _______ _______ _____ _____    ______ ____
DOCKED: USER                              x       y       z     vdW  Elec       q    Type
DOCKED: USER                           _______ _______ _______ _____ _____    ______ ____
DOCKED: ROOT
DOCKED: ATOM      1  N   UNL     1      11.341  21.155  16.041 -0.20 +0.03    -0.289 N  
DOCKED: ATOM      2  C   UNL     1      12.257  21.200  14.924 -0.24 -0.00    +0.110 C  
DOCKED: ATOM      3  C   UNL     1      13.636  20.993  15.563 -0.01 -0.01    +0.049 C  
DOCKED: ATOM      4  C   UNL     1      13.439  21.536  16.977 -0.26 -0.02    +0.164 C  
DOCKED: ATOM      5  C   UNL     1      12.042  21.031  17.224 -0.17 -0.03    +0.235 C  
DOCKED: ATOM      6  O   UNL     1      11.561  20.600  18.249 -0.11 +0.04    -0.274 OA 
DOCKED: ENDROOT
DOCKED: BRANCH   1   8
DOCKED: ATOM      7  C   UNL     1       9.755  19.323  16.497 -0.37 -0.01    +0.038 C  
DOCKED: ATOM      8  C   UNL     1       9.936  20.747  15.949 -0.27 -0.02    +0.159 C  
DOCKED: BRANCH   8   9
DOCKED: ATOM      9  C   UNL     1       8.995  21.765  16.690 -0.17 -0.05    +0.236 C  
DOCKED: ATOM     10  O   UNL     1       8.062  21.359  17.389 -0.07 +0.06    -0.274 OA 
DOCKED: ATOM     11  N   UNL     1       9.152  23.135  16.472 -0.16 +0.08    -0.296 N  
DOCKED: ATOM     12  C   UNL     1      10.097  23.795  15.572 -0.37 -0.01    +0.136 C  
DOCKED: ATOM     13  C   UNL     1      11.170  24.521  16.392 -0.20 +0.01    +0.179 C  
DOCKED: ATOM     14  O   UNL     1      10.571  25.461  17.299 -0.19 +0.12    -0.377 OA 
DOCKED: ATOM     15  C   UNL     1       9.675  24.785  18.206 -0.13 -0.09    +0.179 C  
DOCKED: ATOM     16  C   UNL     1       8.554  24.078  17.426 -0.18 -0.07    +0.136 C  
DOCKED: ENDBRANCH   8   9
DOCKED: ENDBRANCH   1   8
DOCKED: BRANCH   4  17
DOCKED: ATOM     17  N   UNL     1      14.480  21.153  17.936 -0.21 +0.04    -0.178 NA 
DOCKED: ATOM     18  H   UNL     1      15.415  20.991  17.559 -0.26 -0.08    +0.149 HD 
DOCKED: BRANCH  17  19
DOCKED: ATOM     19  S   UNL     1      14.633  22.181  19.295 -0.21 -0.01    +0.059 S  
DOCKED: ATOM     20  O   UNL     1      13.287  22.321  19.817 -0.05 +0.02    -0.153 OA 
DOCKED: ATOM     21  O   UNL     1      15.702  21.643  20.122 -0.17 +0.01    -0.153 OA 
DOCKED: BRANCH  19  22
DOCKED: ATOM     22  C   UNL     1      15.112  23.754  18.647 -0.12 -0.01    +0.106 A  
DOCKED: ATOM     23  C   UNL     1      14.162  24.771  18.564 -0.11 -0.00    +0.029 A  
DOCKED: ATOM     24  C   UNL     1      14.490  25.958  17.904 -0.15 +0.00    +0.010 A  
DOCKED: ATOM     25  C   UNL     1      15.751  26.126  17.301 -0.18 -0.00    -0.016 A  
DOCKED: ATOM     26  C   UNL     1      16.067  27.284  16.575 -0.20 +0.01    +0.028 A  
DOCKED: ATOM     27  C   UNL     1      17.307  27.409  15.947 -0.24 +0.01    +0.042 A  
DOCKED: ATOM     28 CL   UNL     1      17.678  28.843  15.069 -0.33 +0.01    -0.084 Cl 
DOCKED: ATOM     29  C   UNL     1      18.245  26.384  16.020 -0.26 +0.00    +0.020 A  
DOCKED: ATOM     30  C   UNL     1      17.948  25.230  16.746 -0.28 -0.00    +0.010 A  
DOCKED: ATOM     31  C   UNL     1      16.716  25.096  17.407 -0.22 +0.00    -0.016 A  
DOCKED: ATOM     32  C   UNL     1      16.402  23.935  18.127 -0.21 -0.00    +0.037 A  
DOCKED: ENDBRANCH  19  22
DOCKED: ENDBRANCH  17  19
DOCKED: ENDBRANCH   4  17
DOCKED: TORSDOF 5
DOCKED: TER
DOCKED: ENDMDL
________________________________________________________________________________


    CLUSTERING HISTOGRAM
    ____________________


________________________________________________________________________________
     |           |     |           |     |
Clus | Lowest    | Run | Mean      | Num | Histogram
-ter | Binding   |     | Binding   | in  |
Rank | Energy    |     | Energy    | Clus|    5    10   15   20   25   30   35
_____|___________|_____|___________|_____|____:____|____:____|____:____|____:___
   1 |     -5.95 |  22 |     -5.36 |   3 |###
   2 |     -5.64 |  17 |     -5.64 |   1 |#
   3 |     -5.60 |  34 |     -5.27 |  12 |############
   4 |     -5.11 |   5 |     -4.82 |   8 |########
   5 |     -5.07 |  45 |     -5.07 |   1 |#
   6 |     -5.06 |   1 |     -5.06 |   1 |#
   7 |     -4.96 |  16 |     -4.96 |   1 |#
   8 |     -4.92 |  44 |     -4.92 |   1 |#
   9 |     -4.89 |  20 |     -4.87 |   2 |##
  10 |     -4.73 |  25 |     -4.70 |   6 |######
  11 |     -4.66 |  36 |     -4.60 |   5 |#####
  12 |     -4.53 |  19 |     -4.51 |   2 |##
  13 |     -4.25 |  28 |     -4.25 |   1 |#
  14 |     -4.25 |  37 |     -4.25 |   1 |#
  15 |     -4.20 |  23 |     -4.17 |   2 |##
  16 |     -3.96 |  21 |     -3.95 |   2 |##
  17 |     -3.89 |   4 |     -3.89 |   1 |#
_____|___________|_____|___________|_____|______________________________________


    RMSD TABLE
    __________


_______________________________________________________________________
     |      |      |           |         |                 |
Rank | Sub- | Run  | Binding   | Cluster | Reference       | Grep
     | Rank |      | Energy    | RMSD    | RMSD            | Pattern
_____|______|______|___________|_________|_________________|___________
   1      1     22       -5.95      0.00     36.95           RANKING
   1      2     26       -5.07      1.98     37.43           RANKING
   1      3     43       -5.06      1.97     37.46           RANKING
   2      1     17       -5.64      0.00     38.36           RANKING
   3      1     34       -5.60      0.00     32.41           RANKING
   3      2     38       -5.59      0.05     32.39           RANKING
   3      3     46       -5.59      0.05     32.43           RANKING
   3      4      3       -5.59      0.06     32.43           RANKING
   3      5     42       -5.58      0.04     32.41           RANKING
   3      6     12       -5.41      0.82     32.68           RANKING
   3      7     11       -5.31      0.85     32.71           RANKING
   3      8      6       -5.30      0.84     32.67           RANKING
   3      9     13       -4.94      1.97     32.23           RANKING
   3     10     24       -4.92      1.02     32.46           RANKING
   3     11     50       -4.78      1.73     32.43           RANKING
   3     12     33       -4.59      1.90     32.68           RANKING
   4      1      5       -5.11      0.00     32.64           RANKING
   4      2      2       -4.84      1.58     33.54           RANKING
   4      3     32       -4.83      1.93     33.95           RANKING
   4      4      8       -4.81      1.58     33.53           RANKING
   4      5     47       -4.80      1.59     33.55           RANKING
   4      6     15       -4.77      1.58     33.57           RANKING
   4      7     35       -4.77      1.61     33.60           RANKING
   4      8     48       -4.59      1.67     33.56           RANKING
   5      1     45       -5.07      0.00     31.68           RANKING
   6      1      1       -5.06      0.00     33.73           RANKING
   7      1     16       -4.96      0.00     28.67           RANKING
   8      1     44       -4.92      0.00     31.03           RANKING
   9      1     20       -4.89      0.00     36.35           RANKING
   9      2     14       -4.86      0.14     36.40           RANKING
  10      1     25       -4.73      0.00     30.17           RANKING
  10      2     41       -4.71      0.25     30.21           RANKING
  10      3     27       -4.69      0.24     30.25           RANKING
  10      4     49       -4.69      0.25     30.28           RANKING
  10      5      9       -4.68      0.18     30.20           RANKING
  10      6     40       -4.67      0.33     30.30           RANKING
  11      1     36       -4.66      0.00     31.37           RANKING
  11      2     18       -4.66      0.02     31.36           RANKING
  11      3     10       -4.66      0.06     31.39           RANKING
  11      4      7       -4.58      0.32     31.55           RANKING
  11      5     29       -4.44      1.14     31.50           RANKING
  12      1     19       -4.53      0.00     29.77           RANKING
  12      2     31       -4.48      1.85     30.00           RANKING
  13      1     28       -4.25      0.00     34.15           RANKING
  14      1     37       -4.25      0.00     28.71           RANKING
  15      1     23       -4.20      0.00     33.30           RANKING
  15      2     39       -4.14      0.94     32.54           RANKING
  16      1     21       -3.96      0.00     29.86           RANKING
  16      2     30       -3.93      1.90     29.57           RANKING
  17      1      4       -3.89      0.00     30.02           RANKING

Run time 1.260 sec
Idle time 0.350 sec
