AutoDock-GPU version: v1.6-14-g28a61394827e4a7cc1a0c277bf23f1fdc917bb4f

**********************************************************
**    AutoDock-GPU AUTODOCKTOOLS-COMPATIBLE DLG FILE    **
**********************************************************


    DOCKING PARAMETERS
    ________________________


Ligand file:                               ligands_nrun50/0/ligand4.pdbqt
Grid fld file:                             2g76/2g76.maps.fld

Random seed:                               0
Number of runs:                            50
Number of energy evaluations:              480000
Number of generations:                     42000
Size of population:                        150
Rate of crossover:                         80.000000%
Tournament selection probability limit:    60.000000%
Rate of mutation:                          2.000000%
Maximal allowed delta movement:            +/- 6.000000A
Maximal allowed delta angle:               +/- 90.000000

Rate of local search:                      100.000000%
Maximal number of local search iterations: 300
Rho lower bound:                           0.010000
Spread of local search delta movement:     2.000000A
Spread of local search delta angle:        74.999999
Limit of consecutive successes/failures:   4

Handle symmetry during clustering:         YES
RMSD tolerance:                            2.000000A

Program call in command line was:          ../bin/autodock_gpu_128wi -M 2g76/2g76.maps.fld -L ligands_nrun50/0/ligand4.pdbqt -N outs_nrun50/ligand4 -nrun 50 -s 0 


    GRID PARAMETERS
    ________________________


Receptor name:                             2g76
Number of grid points (x, y, z):           61, 61, 61
Grid center (x, y, z):                     14.547000, 25.866000, 14.134000A
Grid size (x, y, z):                       22.500000, 22.500000, 22.500000A
Grid spacing:                              0.375000A


    LIGAND PARAMETERS
    ________________________


Ligand name:                               ligands_nrun50/0/ligand4
Number of atoms:                           25
Number of rotatable bonds:                 5
Number of atom types:                      6


    DUMMY DATA (only for ADT-compatibility)
    ________________________


DPF> outlev 1
DPF> ga_run 50
DPF> fld 2g76/2g76.maps.fld
DPF> move ligands_nrun50/0/ligand4.pdbqt


    COUNTER STATES
    ________________________


Number of energy evaluations performed:    485527
Number of generations used:                26


    INPUT LIGAND PDBQT FILE:
    ________________________


INPUT-LIGAND-PDBQT: REMARK  Name = 
INPUT-LIGAND-PDBQT: REMARK  7 active torsions:
INPUT-LIGAND-PDBQT: REMARK  status: ('A' for Active; 'I' for Inactive)
INPUT-LIGAND-PDBQT: REMARK    1  A    between atoms: C_1  and  C_2
INPUT-LIGAND-PDBQT: REMARK    2  A    between atoms: C_2  and  C_3
INPUT-LIGAND-PDBQT: REMARK    3  A    between atoms: CA_6  and  N_7
INPUT-LIGAND-PDBQT: REMARK    4  A    between atoms: C_8  and  C_10
INPUT-LIGAND-PDBQT: REMARK    5  A    between atoms: C_10  and  C_11
INPUT-LIGAND-PDBQT: REMARK    6  A    between atoms: CA_20  and  C_21
INPUT-LIGAND-PDBQT: REMARK    7  A    between atoms: C_21  and  OXT_23
INPUT-LIGAND-PDBQT: REMARK                            x       y       z     vdW  Elec       q    Type
INPUT-LIGAND-PDBQT: REMARK                         _______ _______ _______ _____ _____    ______ ____
INPUT-LIGAND-PDBQT: ROOT
INPUT-LIGAND-PDBQT: ATOM      1  C   UNL     1       2.471   1.086  -1.066  0.00  0.00    +0.025 C 
INPUT-LIGAND-PDBQT: ATOM      2  C   UNL     1       1.579   0.507   0.034  0.00  0.00    +0.042 C 
INPUT-LIGAND-PDBQT: ATOM      3  C   UNL     1       2.378   0.310   1.328  0.00  0.00    +0.025 C 
INPUT-LIGAND-PDBQT: ATOM      4  S   UNL     1       0.969  -1.167  -0.513  0.00  0.00    -0.127 S 
INPUT-LIGAND-PDBQT: ATOM      5  C   UNL     1      -0.481  -1.068   0.611  0.00  0.00    +0.165 C 
INPUT-LIGAND-PDBQT: ATOM      6  CA  UNL     1      -1.899  -1.254   0.023  0.00  0.00    +0.190 C 
INPUT-LIGAND-PDBQT: ATOM      7  C   UNL     1      -1.939   0.291   0.034  0.00  0.00    +0.240 C 
INPUT-LIGAND-PDBQT: ATOM      8  O   UNL     1      -2.609   1.183  -0.431  0.00  0.00    -0.273 OA
INPUT-LIGAND-PDBQT: ATOM      9  N   UNL     1      -0.755   0.386   0.707  0.00  0.00    -0.271 N 
INPUT-LIGAND-PDBQT: ATOM     10  CA  UNL     1       0.272   1.302   0.192  0.00  0.00    +0.201 C 
INPUT-LIGAND-PDBQT: ENDROOT
INPUT-LIGAND-PDBQT: BRANCH   6  11
INPUT-LIGAND-PDBQT: ATOM     11  N   UNL     1      -2.013  -1.930  -1.293  0.00  0.00    -0.301 N 
INPUT-LIGAND-PDBQT: ATOM     12  C   UNL     1      -2.100  -3.304  -1.361  0.00  0.00    +0.218 C 
INPUT-LIGAND-PDBQT: ATOM     13  O   UNL     1      -2.098  -4.006  -0.352  0.00  0.00    -0.275 OA
INPUT-LIGAND-PDBQT: ATOM     14  H   UNL     1      -2.042  -1.392  -2.153  0.00  0.00    +0.150 HD
INPUT-LIGAND-PDBQT: BRANCH  12  15
INPUT-LIGAND-PDBQT: ATOM     15  C   UNL     1      -2.193  -3.877  -2.761  0.00  0.00    +0.130 C 
INPUT-LIGAND-PDBQT: BRANCH  15  16
INPUT-LIGAND-PDBQT: ATOM     16  C   UNL     1      -3.610  -4.037  -3.257  0.00  0.00    -0.039 A 
INPUT-LIGAND-PDBQT: ATOM     17  C   UNL     1      -4.036  -3.382  -4.420  0.00  0.00    +0.004 A 
INPUT-LIGAND-PDBQT: ATOM     18  C   UNL     1      -5.328  -3.581  -4.913  0.00  0.00    +0.000 A 
INPUT-LIGAND-PDBQT: ATOM     19  C   UNL     1      -6.206  -4.437  -4.250  0.00  0.00    +0.000 A 
INPUT-LIGAND-PDBQT: ATOM     20  C   UNL     1      -5.796  -5.086  -3.088  0.00  0.00    +0.000 A 
INPUT-LIGAND-PDBQT: ATOM     21  C   UNL     1      -4.506  -4.889  -2.593  0.00  0.00    +0.004 A 
INPUT-LIGAND-PDBQT: ENDBRANCH  15  16
INPUT-LIGAND-PDBQT: ENDBRANCH  12  15
INPUT-LIGAND-PDBQT: ENDBRANCH   6  11
INPUT-LIGAND-PDBQT: BRANCH  10  22
INPUT-LIGAND-PDBQT: ATOM     22  C   UNL     1       0.357   2.581   1.028  0.00  0.00    +0.327 C 
INPUT-LIGAND-PDBQT: ATOM     23  O   UNL     1       1.361   3.269   1.138  0.00  0.00    -0.249 OA
INPUT-LIGAND-PDBQT: BRANCH  22  24
INPUT-LIGAND-PDBQT: ATOM     24  OXT UNL     1      -0.836   2.982   1.533  0.00  0.00    -0.479 OA
INPUT-LIGAND-PDBQT: ATOM     25  HXT UNL     1      -1.583   2.423   1.228  0.00  0.00    +0.295 HD
INPUT-LIGAND-PDBQT: ENDBRANCH  22  24
INPUT-LIGAND-PDBQT: ENDBRANCH  10  22
INPUT-LIGAND-PDBQT: TORSDOF 5


    FINAL DOCKED STATE:
    ________________________


Run:   1 / 50
Time taken for this run:   0.000s

DOCKED: MODEL        1
DOCKED: USER    Run = 1
DOCKED: USER
DOCKED: USER    Estimated Free Energy of Binding    =  -4.22 kcal/mol  [=(1)+(2)+(3)-(4)]
DOCKED: USER
DOCKED: USER    (1) Final Intermolecular Energy     =  -5.71 kcal/mol
DOCKED: USER        vdW + Hbond + desolv Energy     =  -5.00 kcal/mol
DOCKED: USER        Electrostatic Energy            =  -0.71 kcal/mol
DOCKED: USER        Moving Ligand-Fixed Receptor    =  -5.71 kcal/mol
DOCKED: USER        Moving Ligand-Moving Receptor   =  +0.00 kcal/mol
DOCKED: USER    (2) Final Total Internal Energy     =  -1.89 kcal/mol
DOCKED: USER    (3) Torsional Free Energy           =  +1.49 kcal/mol
DOCKED: USER    (4) Unbound System's Energy         =  -1.89 kcal/mol
DOCKED: USER
DOCKED: USER
DOCKED: REMARK  Name = 
DOCKED: REMARK  7 active torsions:
DOCKED: REMARK  status: ('A' for Active; 'I' for Inactive)
DOCKED: REMARK    1  A    between atoms: C_1  and  C_2
DOCKED: REMARK    2  A    between atoms: C_2  and  C_3
DOCKED: REMARK    3  A    between atoms: CA_6  and  N_7
DOCKED: REMARK    4  A    between atoms: C_8  and  C_10
DOCKED: REMARK    5  A    between atoms: C_10  and  C_11
DOCKED: REMARK    6  A    between atoms: CA_20  and  C_21
DOCKED: REMARK    7  A    between atoms: C_21  and  OXT_23
DOCKED: REMARK                            x       y       z     vdW  Elec       q    Type
DOCKED: REMARK                         _______ _______ _______ _____ _____    ______ ____
DOCKED: USER                              x       y       z     vdW  Elec       q    Type
DOCKED: USER                           _______ _______ _______ _____ _____    ______ ____
DOCKED: ROOT
DOCKED: ATOM      1  C   UNL     1       9.159  31.169  17.837 -0.15 -0.02    +0.025 C  
DOCKED: ATOM      2  C   UNL     1       7.699  31.507  18.145 -0.18 -0.03    +0.042 C  
DOCKED: ATOM      3  C   UNL     1       7.600  32.848  18.881 -0.14 -0.01    +0.025 C  
DOCKED: ATOM      4  S   UNL     1       7.008  30.193  19.272 -0.15 +0.13    -0.127 S  
DOCKED: ATOM      5  C   UNL     1       5.289  30.562  18.741 -0.19 -0.18    +0.165 C  
DOCKED: ATOM      6  CA  UNL     1       4.411  29.414  18.192 -0.19 -0.22    +0.190 C  
DOCKED: ATOM      7  C   UNL     1       4.826  29.963  16.809 -0.27 -0.24    +0.240 C  
DOCKED: ATOM      8  O   UNL     1       4.797  29.618  15.651 -0.66 +0.15    -0.273 OA 
DOCKED: ATOM      9  N   UNL     1       5.446  31.053  17.350 -0.21 +0.24    -0.271 N  
DOCKED: ATOM     10  CA  UNL     1       6.805  31.381  16.900 -0.27 -0.14    +0.201 C  
DOCKED: ENDROOT
DOCKED: BRANCH   6  11
DOCKED: ATOM     11  N   UNL     1       4.813  28.024  18.523 -0.04 +0.39    -0.301 N  
DOCKED: ATOM     12  C   UNL     1       4.337  27.419  19.666 -0.05 -0.17    +0.218 C  
DOCKED: ATOM     13  O   UNL     1       3.567  27.993  20.434 -0.02 +0.18    -0.275 OA 
DOCKED: ATOM     14  H   UNL     1       5.428  27.501  17.909 -0.42 -0.35    +0.150 HD 
DOCKED: BRANCH  12  15
DOCKED: ATOM     15  C   UNL     1       4.834  26.007  19.904 -0.05 -0.08    +0.130 C  
DOCKED: BRANCH  15  16
DOCKED: ATOM     16  C   UNL     1       6.243  25.771  19.417 -0.08 +0.03    -0.039 A  
DOCKED: ATOM     17  C   UNL     1       7.315  26.491  19.961 -0.09 -0.00    +0.004 A  
DOCKED: ATOM     18  C   UNL     1       8.626  26.227  19.554 -0.10 -0.00    +0.000 A  
DOCKED: ATOM     19  C   UNL     1       8.878  25.240  18.602 -0.13 -0.00    +0.000 A  
DOCKED: ATOM     20  C   UNL     1       7.819  24.525  18.048 -0.15 -0.00    +0.000 A  
DOCKED: ATOM     21  C   UNL     1       6.509  24.787  18.452 -0.12 -0.00    +0.004 A  
DOCKED: ENDBRANCH  15  16
DOCKED: ENDBRANCH  12  15
DOCKED: ENDBRANCH   6  11
DOCKED: BRANCH  10  22
DOCKED: ATOM     22  C   UNL     1       6.809  32.575  15.943 -0.24 +0.08    +0.327 C  
DOCKED: ATOM     23  O   UNL     1       7.758  33.327  15.780 -0.37 -0.16    -0.249 OA 
DOCKED: BRANCH  22  24
DOCKED: ATOM     24  OXT UNL     1       5.702  32.652  15.163 -0.60 -0.17    -0.479 OA 
DOCKED: ATOM     25  HXT UNL     1       5.249  31.787  15.064 -0.11 -0.12    +0.295 HD 
DOCKED: ENDBRANCH  22  24
DOCKED: ENDBRANCH  10  22
DOCKED: TORSDOF 5
DOCKED: TER
DOCKED: ENDMDL
________________________________________________________________________________


    FINAL DOCKED STATE:
    ________________________


Run:   2 / 50
Time taken for this run:   0.000s

DOCKED: MODEL        2
DOCKED: USER    Run = 2
DOCKED: USER
DOCKED: USER    Estimated Free Energy of Binding    =  -4.20 kcal/mol  [=(1)+(2)+(3)-(4)]
DOCKED: USER
DOCKED: USER    (1) Final Intermolecular Energy     =  -5.69 kcal/mol
DOCKED: USER        vdW + Hbond + desolv Energy     =  -5.37 kcal/mol
DOCKED: USER        Electrostatic Energy            =  -0.32 kcal/mol
DOCKED: USER        Moving Ligand-Fixed Receptor    =  -5.69 kcal/mol
DOCKED: USER        Moving Ligand-Moving Receptor   =  +0.00 kcal/mol
DOCKED: USER    (2) Final Total Internal Energy     =  -1.62 kcal/mol
DOCKED: USER    (3) Torsional Free Energy           =  +1.49 kcal/mol
DOCKED: USER    (4) Unbound System's Energy         =  -1.62 kcal/mol
DOCKED: USER
DOCKED: USER
DOCKED: REMARK  Name = 
DOCKED: REMARK  7 active torsions:
DOCKED: REMARK  status: ('A' for Active; 'I' for Inactive)
DOCKED: REMARK    1  A    between atoms: C_1  and  C_2
DOCKED: REMARK    2  A    between atoms: C_2  and  C_3
DOCKED: REMARK    3  A    between atoms: CA_6  and  N_7
DOCKED: REMARK    4  A    between atoms: C_8  and  C_10
DOCKED: REMARK    5  A    between atoms: C_10  and  C_11
DOCKED: REMARK    6  A    between atoms: CA_20  and  C_21
DOCKED: REMARK    7  A    between atoms: C_21  and  OXT_23
DOCKED: REMARK                            x       y       z     vdW  Elec       q    Type
DOCKED: REMARK                         _______ _______ _______ _____ _____    ______ ____
DOCKED: USER                              x       y       z     vdW  Elec       q    Type
DOCKED: USER                           _______ _______ _______ _____ _____    ______ ____
DOCKED: ROOT
DOCKED: ATOM      1  C   UNL     1      19.980  29.231   9.642 -0.22 -0.01    +0.025 C  
DOCKED: ATOM      2  C   UNL     1      20.059  30.593  10.335 -0.36 -0.01    +0.042 C  
DOCKED: ATOM      3  C   UNL     1      20.768  30.468  11.689 -0.20 -0.01    +0.025 C  
DOCKED: ATOM      4  S   UNL     1      18.326  31.198  10.659 -0.03 +0.14    -0.127 S  
DOCKED: ATOM      5  C   UNL     1      18.890  32.945  10.729 -0.13 -0.10    +0.165 C  
DOCKED: ATOM      6  CA  UNL     1      18.216  33.987   9.806 -0.12 -0.08    +0.190 C  
DOCKED: ATOM      7  C   UNL     1      19.448  33.754   8.902 -0.11 +0.03    +0.240 C  
DOCKED: ATOM      8  O   UNL     1      19.799  33.994   7.770 -0.46 -0.23    -0.273 OA 
DOCKED: ATOM      9  N   UNL     1      20.070  32.972   9.832 -0.08 +0.03    -0.271 N  
DOCKED: ATOM     10  CA  UNL     1      20.622  31.680   9.404 -0.23 -0.00    +0.201 C  
DOCKED: ENDROOT
DOCKED: BRANCH   6  11
DOCKED: ATOM     11  N   UNL     1      16.885  33.649   9.246 -0.08 +0.23    -0.301 N  
DOCKED: ATOM     12  C   UNL     1      16.339  34.420   8.242 -0.21 -0.05    +0.218 C  
DOCKED: ATOM     13  O   UNL     1      16.930  35.391   7.775 -0.09 +0.00    -0.275 OA 
DOCKED: ATOM     14  H   UNL     1      16.368  32.843   9.583 -0.38 -0.31    +0.150 HD 
DOCKED: BRANCH  12  15
DOCKED: ATOM     15  C   UNL     1      14.967  33.985   7.767 -0.29 -0.02    +0.130 C  
DOCKED: BRANCH  15  16
DOCKED: ATOM     16  C   UNL     1      13.843  34.433   8.670 -0.34 +0.01    -0.039 A  
DOCKED: ATOM     17  C   UNL     1      13.560  33.738   9.853 -0.36 -0.00    +0.004 A  
DOCKED: ATOM     18  C   UNL     1      12.561  34.190  10.719 -0.36 -0.00    +0.000 A  
DOCKED: ATOM     19  C   UNL     1      11.838  35.342  10.413 -0.31 -0.00    +0.000 A  
DOCKED: ATOM     20  C   UNL     1      12.105  36.035   9.235 -0.34 -0.00    +0.000 A  
DOCKED: ATOM     21  C   UNL     1      13.102  35.585   8.367 -0.32 -0.00    +0.004 A  
DOCKED: ENDBRANCH  15  16
DOCKED: ENDBRANCH  12  15
DOCKED: ENDBRANCH   6  11
DOCKED: BRANCH  10  22
DOCKED: ATOM     22  C   UNL     1      22.146  31.733   9.274 -0.16 +0.00    +0.327 C  
DOCKED: ATOM     23  O   UNL     1      22.907  30.886   9.716 -0.22 +0.02    -0.249 OA 
DOCKED: BRANCH  22  24
DOCKED: ATOM     24  OXT UNL     1      22.590  32.743   8.485 -0.07 -0.06    -0.479 OA 
DOCKED: ATOM     25  HXT UNL     1      21.876  33.368   8.232 +0.08 +0.09    +0.295 HD 
DOCKED: ENDBRANCH  22  24
DOCKED: ENDBRANCH  10  22
DOCKED: TORSDOF 5
DOCKED: TER
DOCKED: ENDMDL
________________________________________________________________________________


    FINAL DOCKED STATE:
    ________________________


Run:   3 / 50
Time taken for this run:   0.000s

DOCKED: MODEL        3
DOCKED: USER    Run = 3
DOCKED: USER
DOCKED: USER    Estimated Free Energy of Binding    =  -4.06 kcal/mol  [=(1)+(2)+(3)-(4)]
DOCKED: USER
DOCKED: USER    (1) Final Intermolecular Energy     =  -5.55 kcal/mol
DOCKED: USER        vdW + Hbond + desolv Energy     =  -5.22 kcal/mol
DOCKED: USER        Electrostatic Energy            =  -0.32 kcal/mol
DOCKED: USER        Moving Ligand-Fixed Receptor    =  -5.55 kcal/mol
DOCKED: USER        Moving Ligand-Moving Receptor   =  +0.00 kcal/mol
DOCKED: USER    (2) Final Total Internal Energy     =  -1.61 kcal/mol
DOCKED: USER    (3) Torsional Free Energy           =  +1.49 kcal/mol
DOCKED: USER    (4) Unbound System's Energy         =  -1.61 kcal/mol
DOCKED: USER
DOCKED: USER
DOCKED: REMARK  Name = 
DOCKED: REMARK  7 active torsions:
DOCKED: REMARK  status: ('A' for Active; 'I' for Inactive)
DOCKED: REMARK    1  A    between atoms: C_1  and  C_2
DOCKED: REMARK    2  A    between atoms: C_2  and  C_3
DOCKED: REMARK    3  A    between atoms: CA_6  and  N_7
DOCKED: REMARK    4  A    between atoms: C_8  and  C_10
DOCKED: REMARK    5  A    between atoms: C_10  and  C_11
DOCKED: REMARK    6  A    between atoms: CA_20  and  C_21
DOCKED: REMARK    7  A    between atoms: C_21  and  OXT_23
DOCKED: REMARK                            x       y       z     vdW  Elec       q    Type
DOCKED: REMARK                         _______ _______ _______ _____ _____    ______ ____
DOCKED: USER                              x       y       z     vdW  Elec       q    Type
DOCKED: USER                           _______ _______ _______ _____ _____    ______ ____
DOCKED: ROOT
DOCKED: ATOM      1  C   UNL     1      20.436  29.598  10.322 -0.28 -0.01    +0.025 C  
DOCKED: ATOM      2  C   UNL     1      20.437  31.049  10.807 -0.24 -0.01    +0.042 C  
DOCKED: ATOM      3  C   UNL     1      21.131  31.162  12.169 -0.12 -0.01    +0.025 C  
DOCKED: ATOM      4  S   UNL     1      18.672  31.605  11.025 -0.24 +0.12    -0.127 S  
DOCKED: ATOM      5  C   UNL     1      19.146  33.371  10.839 -0.10 -0.08    +0.165 C  
DOCKED: ATOM      6  CA  UNL     1      18.436  34.229   9.767 -0.11 -0.06    +0.190 C  
DOCKED: ATOM      7  C   UNL     1      19.691  33.929   8.917 -0.11 +0.03    +0.240 C  
DOCKED: ATOM      8  O   UNL     1      20.046  34.017   7.765 -0.46 -0.23    -0.273 OA 
DOCKED: ATOM      9  N   UNL     1      20.337  33.325   9.957 -0.05 +0.03    -0.271 N  
DOCKED: ATOM     10  CA  UNL     1      20.959  32.014   9.729 -0.17 -0.01    +0.201 C  
DOCKED: ENDROOT
DOCKED: BRANCH   6  11
DOCKED: ATOM     11  N   UNL     1      17.131  33.744   9.254 -0.11 +0.19    -0.301 N  
DOCKED: ATOM     12  C   UNL     1      16.527  34.377   8.188 -0.20 -0.04    +0.218 C  
DOCKED: ATOM     13  O   UNL     1      17.043  35.342   7.628 -0.10 -0.01    -0.275 OA 
DOCKED: ATOM     14  H   UNL     1      16.677  32.937   9.668 -0.36 -0.27    +0.150 HD 
DOCKED: BRANCH  12  15
DOCKED: ATOM     15  C   UNL     1      15.190  33.801   7.768 -0.30 -0.03    +0.130 C  
DOCKED: BRANCH  15  16
DOCKED: ATOM     16  C   UNL     1      14.017  34.382   8.521 -0.34 +0.01    -0.039 A  
DOCKED: ATOM     17  C   UNL     1      13.493  33.724   9.641 -0.38 -0.00    +0.004 A  
DOCKED: ATOM     18  C   UNL     1      12.449  34.294  10.374 -0.35 -0.00    +0.000 A  
DOCKED: ATOM     19  C   UNL     1      11.920  35.527   9.996 -0.30 -0.00    +0.000 A  
DOCKED: ATOM     20  C   UNL     1      12.427  36.185   8.878 -0.35 -0.00    +0.000 A  
DOCKED: ATOM     21  C   UNL     1      13.470  35.618   8.144 -0.30 -0.00    +0.004 A  
DOCKED: ENDBRANCH  15  16
DOCKED: ENDBRANCH  12  15
DOCKED: ENDBRANCH   6  11
DOCKED: BRANCH  10  22
DOCKED: ATOM     22  C   UNL     1      22.480  32.126   9.604 -0.12 -0.01    +0.327 C  
DOCKED: ATOM     23  O   UNL     1      23.270  31.283  10.003 -0.19 +0.03    -0.249 OA 
DOCKED: BRANCH  22  24
DOCKED: ATOM     24  OXT UNL     1      22.889  33.189   8.868 -0.02 -0.02    -0.479 OA 
DOCKED: ATOM     25  HXT UNL     1      22.142  33.673   8.454 +0.08 +0.05    +0.295 HD 
DOCKED: ENDBRANCH  22  24
DOCKED: ENDBRANCH  10  22
DOCKED: TORSDOF 5
DOCKED: TER
DOCKED: ENDMDL
________________________________________________________________________________


    FINAL DOCKED STATE:
    ________________________


Run:   4 / 50
Time taken for this run:   0.000s

DOCKED: MODEL        4
DOCKED: USER    Run = 4
DOCKED: USER
DOCKED: USER    Estimated Free Energy of Binding    =  -3.65 kcal/mol  [=(1)+(2)+(3)-(4)]
DOCKED: USER
DOCKED: USER    (1) Final Intermolecular Energy     =  -5.15 kcal/mol
DOCKED: USER        vdW + Hbond + desolv Energy     =  -5.19 kcal/mol
DOCKED: USER        Electrostatic Energy            =  +0.04 kcal/mol
DOCKED: USER        Moving Ligand-Fixed Receptor    =  -5.15 kcal/mol
DOCKED: USER        Moving Ligand-Moving Receptor   =  +0.00 kcal/mol
DOCKED: USER    (2) Final Total Internal Energy     =  -1.71 kcal/mol
DOCKED: USER    (3) Torsional Free Energy           =  +1.49 kcal/mol
DOCKED: USER    (4) Unbound System's Energy         =  -1.71 kcal/mol
DOCKED: USER
DOCKED: USER
DOCKED: REMARK  Name = 
DOCKED: REMARK  7 active torsions:
DOCKED: REMARK  status: ('A' for Active; 'I' for Inactive)
DOCKED: REMARK    1  A    between atoms: C_1  and  C_2
DOCKED: REMARK    2  A    between atoms: C_2  and  C_3
DOCKED: REMARK    3  A    between atoms: CA_6  and  N_7
DOCKED: REMARK    4  A    between atoms: C_8  and  C_10
DOCKED: REMARK    5  A    between atoms: C_10  and  C_11
DOCKED: REMARK    6  A    between atoms: CA_20  and  C_21
DOCKED: REMARK    7  A    between atoms: C_21  and  OXT_23
DOCKED: REMARK                            x       y       z     vdW  Elec       q    Type
DOCKED: REMARK                         _______ _______ _______ _____ _____    ______ ____
DOCKED: USER                              x       y       z     vdW  Elec       q    Type
DOCKED: USER                           _______ _______ _______ _____ _____    ______ ____
DOCKED: ROOT
DOCKED: ATOM      1  C   UNL     1      10.420  19.263  17.772 -0.21 -0.00    +0.025 C  
DOCKED: ATOM      2  C   UNL     1      10.309  20.160  16.537 -0.34 -0.01    +0.042 C  
DOCKED: ATOM      3  C   UNL     1      10.323  19.318  15.256 -0.46 -0.00    +0.025 C  
DOCKED: ATOM      4  S   UNL     1      11.790  21.290  16.486 -0.39 +0.01    -0.127 S  
DOCKED: ATOM      5  C   UNL     1      10.890  22.516  15.455 -0.19 +0.00    +0.165 C  
DOCKED: ATOM      6  CA  UNL     1      10.800  23.981  15.940 -0.28 +0.00    +0.190 C  
DOCKED: ATOM      7  C   UNL     1       9.402  23.565  16.449 -0.22 -0.07    +0.240 C  
DOCKED: ATOM      8  O   UNL     1       8.542  23.990  17.185 -0.16 +0.14    -0.273 OA 
DOCKED: ATOM      9  N   UNL     1       9.473  22.339  15.853 -0.20 +0.05    -0.271 N  
DOCKED: ATOM     10  CA  UNL     1       9.139  21.151  16.650 -0.19 -0.04    +0.201 C  
DOCKED: ENDROOT
DOCKED: BRANCH   6  11
DOCKED: ATOM     11  N   UNL     1      11.788  24.431  16.951 -0.12 -0.02    -0.301 N  
DOCKED: ATOM     12  C   UNL     1      11.883  25.766  17.281 -0.09 +0.03    +0.218 C  
DOCKED: ATOM     13  O   UNL     1      11.158  26.615  16.768 -0.60 -0.05    -0.275 OA 
DOCKED: ATOM     14  H   UNL     1      12.394  23.765  17.419 +0.05 -0.00    +0.150 HD 
DOCKED: BRANCH  12  15
DOCKED: ATOM     15  C   UNL     1      12.942  26.103  18.312 -0.14 -0.00    +0.130 C  
DOCKED: BRANCH  15  16
DOCKED: ATOM     16  C   UNL     1      14.328  25.645  17.928 -0.14 -0.00    -0.039 A  
DOCKED: ATOM     17  C   UNL     1      14.705  24.305  18.088 -0.16 -0.00    +0.004 A  
DOCKED: ATOM     18  C   UNL     1      15.966  23.868  17.674 -0.26 -0.00    +0.000 A  
DOCKED: ATOM     19  C   UNL     1      16.862  24.765  17.095 -0.28 -0.00    +0.000 A  
DOCKED: ATOM     20  C   UNL     1      16.501  26.102  16.939 -0.24 +0.00    +0.000 A  
DOCKED: ATOM     21  C   UNL     1      15.242  26.540  17.352 -0.17 +0.00    +0.004 A  
DOCKED: ENDBRANCH  15  16
DOCKED: ENDBRANCH  12  15
DOCKED: ENDBRANCH   6  11
DOCKED: BRANCH  10  22
DOCKED: ATOM     22  C   UNL     1       7.754  20.604  16.294 -0.16 -0.06    +0.327 C  
DOCKED: ATOM     23  O   UNL     1       7.475  19.416  16.237 -0.21 +0.03    -0.249 OA 
DOCKED: BRANCH  22  24
DOCKED: ATOM     24  OXT UNL     1       6.801  21.562  16.185 -0.10 +0.14    -0.479 OA 
DOCKED: ATOM     25  HXT UNL     1       7.117  22.445  16.476 +0.10 -0.11    +0.295 HD 
DOCKED: ENDBRANCH  22  24
DOCKED: ENDBRANCH  10  22
DOCKED: TORSDOF 5
DOCKED: TER
DOCKED: ENDMDL
________________________________________________________________________________


    FINAL DOCKED STATE:
    ________________________


Run:   5 / 50
Time taken for this run:   0.000s

DOCKED: MODEL        5
DOCKED: USER    Run = 5
DOCKED: USER
DOCKED: USER    Estimated Free Energy of Binding    =  -3.65 kcal/mol  [=(1)+(2)+(3)-(4)]
DOCKED: USER
DOCKED: USER    (1) Final Intermolecular Energy     =  -5.14 kcal/mol
DOCKED: USER        vdW + Hbond + desolv Energy     =  -5.17 kcal/mol
DOCKED: USER        Electrostatic Energy            =  +0.04 kcal/mol
DOCKED: USER        Moving Ligand-Fixed Receptor    =  -5.14 kcal/mol
DOCKED: USER        Moving Ligand-Moving Receptor   =  +0.00 kcal/mol
DOCKED: USER    (2) Final Total Internal Energy     =  -1.71 kcal/mol
DOCKED: USER    (3) Torsional Free Energy           =  +1.49 kcal/mol
DOCKED: USER    (4) Unbound System's Energy         =  -1.71 kcal/mol
DOCKED: USER
DOCKED: USER
DOCKED: REMARK  Name = 
DOCKED: REMARK  7 active torsions:
DOCKED: REMARK  status: ('A' for Active; 'I' for Inactive)
DOCKED: REMARK    1  A    between atoms: C_1  and  C_2
DOCKED: REMARK    2  A    between atoms: C_2  and  C_3
DOCKED: REMARK    3  A    between atoms: CA_6  and  N_7
DOCKED: REMARK    4  A    between atoms: C_8  and  C_10
DOCKED: REMARK    5  A    between atoms: C_10  and  C_11
DOCKED: REMARK    6  A    between atoms: CA_20  and  C_21
DOCKED: REMARK    7  A    between atoms: C_21  and  OXT_23
DOCKED: REMARK                            x       y       z     vdW  Elec       q    Type
DOCKED: REMARK                         _______ _______ _______ _____ _____    ______ ____
DOCKED: USER                              x       y       z     vdW  Elec       q    Type
DOCKED: USER                           _______ _______ _______ _____ _____    ______ ____
DOCKED: ROOT
DOCKED: ATOM      1  C   UNL     1      10.407  19.147  17.764 -0.21 -0.00    +0.025 C  
DOCKED: ATOM      2  C   UNL     1      10.366  20.013  16.503 -0.35 -0.01    +0.042 C  
DOCKED: ATOM      3  C   UNL     1      10.422  19.138  15.245 -0.49 -0.00    +0.025 C  
DOCKED: ATOM      4  S   UNL     1      11.867  21.118  16.489 -0.39 +0.01    -0.127 S  
DOCKED: ATOM      5  C   UNL     1      11.034  22.330  15.389 -0.11 +0.00    +0.165 C  
DOCKED: ATOM      6  CA  UNL     1      10.947  23.809  15.832 -0.24 +0.01    +0.190 C  
DOCKED: ATOM      7  C   UNL     1       9.521  23.428  16.290 -0.24 -0.06    +0.240 C  
DOCKED: ATOM      8  O   UNL     1       8.637  23.886  16.975 -0.18 +0.13    -0.273 OA 
DOCKED: ATOM      9  N   UNL     1       9.597  22.187  15.728 -0.20 +0.04    -0.271 N  
DOCKED: ATOM     10  CA  UNL     1       9.208  21.025  16.540 -0.21 -0.03    +0.201 C  
DOCKED: ENDROOT
DOCKED: BRANCH   6  11
DOCKED: ATOM     11  N   UNL     1      11.898  24.269  16.875 -0.12 -0.03    -0.301 N  
DOCKED: ATOM     12  C   UNL     1      11.924  25.595  17.253 -0.10 +0.03    +0.218 C  
DOCKED: ATOM     13  O   UNL     1      11.166  26.426  16.757 -0.57 -0.05    -0.275 OA 
DOCKED: ATOM     14  H   UNL     1      12.528  23.616  17.329 +0.05 +0.00    +0.150 HD 
DOCKED: BRANCH  12  15
DOCKED: ATOM     15  C   UNL     1      12.950  25.945  18.311 -0.13 -0.00    +0.130 C  
DOCKED: BRANCH  15  16
DOCKED: ATOM     16  C   UNL     1      14.370  25.631  17.906 -0.14 -0.00    -0.039 A  
DOCKED: ATOM     17  C   UNL     1      14.867  24.325  18.005 -0.17 -0.00    +0.004 A  
DOCKED: ATOM     18  C   UNL     1      16.160  24.023  17.570 -0.27 -0.00    +0.000 A  
DOCKED: ATOM     19  C   UNL     1      16.968  25.022  17.031 -0.27 -0.00    +0.000 A  
DOCKED: ATOM     20  C   UNL     1      16.487  26.326  16.936 -0.24 +0.00    +0.000 A  
DOCKED: ATOM     21  C   UNL     1      15.196  26.631  17.370 -0.17 +0.00    +0.004 A  
DOCKED: ENDBRANCH  15  16
DOCKED: ENDBRANCH  12  15
DOCKED: ENDBRANCH   6  11
DOCKED: BRANCH  10  22
DOCKED: ATOM     22  C   UNL     1       7.832  20.491  16.136 -0.16 -0.06    +0.327 C  
DOCKED: ATOM     23  O   UNL     1       7.525  19.308  16.129 -0.22 +0.02    -0.249 OA 
DOCKED: BRANCH  22  24
DOCKED: ATOM     24  OXT UNL     1       6.912  21.464  15.922 -0.12 +0.14    -0.479 OA 
DOCKED: ATOM     25  HXT UNL     1       7.228  22.351  16.197 +0.10 -0.11    +0.295 HD 
DOCKED: ENDBRANCH  22  24
DOCKED: ENDBRANCH  10  22
DOCKED: TORSDOF 5
DOCKED: TER
DOCKED: ENDMDL
________________________________________________________________________________


    FINAL DOCKED STATE:
    ________________________


Run:   6 / 50
Time taken for this run:   0.000s

DOCKED: MODEL        6
DOCKED: USER    Run = 6
DOCKED: USER
DOCKED: USER    Estimated Free Energy of Binding    =  -3.42 kcal/mol  [=(1)+(2)+(3)-(4)]
DOCKED: USER
DOCKED: USER    (1) Final Intermolecular Energy     =  -4.91 kcal/mol
DOCKED: USER        vdW + Hbond + desolv Energy     =  -4.94 kcal/mol
DOCKED: USER        Electrostatic Energy            =  +0.03 kcal/mol
DOCKED: USER        Moving Ligand-Fixed Receptor    =  -4.91 kcal/mol
DOCKED: USER        Moving Ligand-Moving Receptor   =  +0.00 kcal/mol
DOCKED: USER    (2) Final Total Internal Energy     =  -1.85 kcal/mol
DOCKED: USER    (3) Torsional Free Energy           =  +1.49 kcal/mol
DOCKED: USER    (4) Unbound System's Energy         =  -1.85 kcal/mol
DOCKED: USER
DOCKED: USER
DOCKED: REMARK  Name = 
DOCKED: REMARK  7 active torsions:
DOCKED: REMARK  status: ('A' for Active; 'I' for Inactive)
DOCKED: REMARK    1  A    between atoms: C_1  and  C_2
DOCKED: REMARK    2  A    between atoms: C_2  and  C_3
DOCKED: REMARK    3  A    between atoms: CA_6  and  N_7
DOCKED: REMARK    4  A    between atoms: C_8  and  C_10
DOCKED: REMARK    5  A    between atoms: C_10  and  C_11
DOCKED: REMARK    6  A    between atoms: CA_20  and  C_21
DOCKED: REMARK    7  A    between atoms: C_21  and  OXT_23
DOCKED: REMARK                            x       y       z     vdW  Elec       q    Type
DOCKED: REMARK                         _______ _______ _______ _____ _____    ______ ____
DOCKED: USER                              x       y       z     vdW  Elec       q    Type
DOCKED: USER                           _______ _______ _______ _____ _____    ______ ____
DOCKED: ROOT
DOCKED: ATOM      1  C   UNL     1      10.783  25.512  16.546 -0.17 -0.00    +0.025 C  
DOCKED: ATOM      2  C   UNL     1      10.944  24.196  17.310 -0.23 -0.01    +0.042 C  
DOCKED: ATOM      3  C   UNL     1       9.993  24.151  18.513 -0.12 -0.01    +0.025 C  
DOCKED: ATOM      4  S   UNL     1      12.686  24.096  17.965 -0.19 +0.00    -0.127 S  
DOCKED: ATOM      5  C   UNL     1      12.605  22.264  18.062 -0.15 -0.02    +0.165 C  
DOCKED: ATOM      6  CA  UNL     1      13.687  21.426  17.342 -0.22 -0.03    +0.190 C  
DOCKED: ATOM      7  C   UNL     1      12.624  21.293  16.228 -0.28 -0.02    +0.240 C  
DOCKED: ATOM      8  O   UNL     1      12.561  20.941  15.073 -0.40 +0.02    -0.273 OA 
DOCKED: ATOM      9  N   UNL     1      11.658  21.894  16.982 -0.13 +0.03    -0.271 N  
DOCKED: ATOM     10  CA  UNL     1      10.869  22.976  16.377 -0.23 -0.01    +0.201 C  
DOCKED: ENDROOT
DOCKED: BRANCH   6  11
DOCKED: ATOM     11  N   UNL     1      14.960  22.104  16.992 -0.21 +0.07    -0.301 N  
DOCKED: ATOM     12  C   UNL     1      15.697  22.739  17.968 -0.19 -0.04    +0.218 C  
DOCKED: ATOM     13  O   UNL     1      15.340  22.757  19.144 -0.10 +0.03    -0.275 OA 
DOCKED: ATOM     14  H   UNL     1      15.308  22.097  16.039 -0.25 -0.03    +0.150 HD 
DOCKED: BRANCH  12  15
DOCKED: ATOM     15  C   UNL     1      16.967  23.411  17.485 -0.24 -0.02    +0.130 C  
DOCKED: BRANCH  15  16
DOCKED: ATOM     16  C   UNL     1      16.774  24.854  17.083 -0.26 +0.00    -0.039 A  
DOCKED: ATOM     17  C   UNL     1      15.647  25.568  17.512 -0.18 +0.00    +0.004 A  
DOCKED: ATOM     18  C   UNL     1      15.501  26.920  17.193 -0.18 +0.00    +0.000 A  
DOCKED: ATOM     19  C   UNL     1      16.480  27.572  16.444 -0.23 +0.00    +0.000 A  
DOCKED: ATOM     20  C   UNL     1      17.599  26.869  16.005 -0.27 +0.00    +0.000 A  
DOCKED: ATOM     21  C   UNL     1      17.747  25.518  16.322 -0.30 -0.00    +0.004 A  
DOCKED: ENDBRANCH  15  16
DOCKED: ENDBRANCH  12  15
DOCKED: ENDBRANCH   6  11
DOCKED: BRANCH  10  22
DOCKED: ATOM     22  C   UNL     1       9.464  22.504  15.995 -0.21 -0.06    +0.327 C  
DOCKED: ATOM     23  O   UNL     1       8.487  23.234  15.922 -0.27 +0.09    -0.249 OA 
DOCKED: BRANCH  22  24
DOCKED: ATOM     24  OXT UNL     1       9.415  21.210  15.593 -0.11 +0.06    -0.479 OA 
DOCKED: ATOM     25  HXT UNL     1      10.301  20.848  15.373 +0.18 -0.02    +0.295 HD 
DOCKED: ENDBRANCH  22  24
DOCKED: ENDBRANCH  10  22
DOCKED: TORSDOF 5
DOCKED: TER
DOCKED: ENDMDL
________________________________________________________________________________


    FINAL DOCKED STATE:
    ________________________


Run:   7 / 50
Time taken for this run:   0.000s

DOCKED: MODEL        7
DOCKED: USER    Run = 7
DOCKED: USER
DOCKED: USER    Estimated Free Energy of Binding    =  -3.42 kcal/mol  [=(1)+(2)+(3)-(4)]
DOCKED: USER
DOCKED: USER    (1) Final Intermolecular Energy     =  -4.91 kcal/mol
DOCKED: USER        vdW + Hbond + desolv Energy     =  -4.93 kcal/mol
DOCKED: USER        Electrostatic Energy            =  +0.03 kcal/mol
DOCKED: USER        Moving Ligand-Fixed Receptor    =  -4.91 kcal/mol
DOCKED: USER        Moving Ligand-Moving Receptor   =  +0.00 kcal/mol
DOCKED: USER    (2) Final Total Internal Energy     =  -1.86 kcal/mol
DOCKED: USER    (3) Torsional Free Energy           =  +1.49 kcal/mol
DOCKED: USER    (4) Unbound System's Energy         =  -1.86 kcal/mol
DOCKED: USER
DOCKED: USER
DOCKED: REMARK  Name = 
DOCKED: REMARK  7 active torsions:
DOCKED: REMARK  status: ('A' for Active; 'I' for Inactive)
DOCKED: REMARK    1  A    between atoms: C_1  and  C_2
DOCKED: REMARK    2  A    between atoms: C_2  and  C_3
DOCKED: REMARK    3  A    between atoms: CA_6  and  N_7
DOCKED: REMARK    4  A    between atoms: C_8  and  C_10
DOCKED: REMARK    5  A    between atoms: C_10  and  C_11
DOCKED: REMARK    6  A    between atoms: CA_20  and  C_21
DOCKED: REMARK    7  A    between atoms: C_21  and  OXT_23
DOCKED: REMARK                            x       y       z     vdW  Elec       q    Type
DOCKED: REMARK                         _______ _______ _______ _____ _____    ______ ____
DOCKED: USER                              x       y       z     vdW  Elec       q    Type
DOCKED: USER                           _______ _______ _______ _____ _____    ______ ____
DOCKED: ROOT
DOCKED: ATOM      1  C   UNL     1      10.794  25.515  16.620 -0.20 -0.00    +0.025 C  
DOCKED: ATOM      2  C   UNL     1      10.950  24.184  17.357 -0.22 -0.01    +0.042 C  
DOCKED: ATOM      3  C   UNL     1      10.000  24.118  18.558 -0.11 -0.01    +0.025 C  
DOCKED: ATOM      4  S   UNL     1      12.692  24.064  18.008 -0.19 +0.01    -0.127 S  
DOCKED: ATOM      5  C   UNL     1      12.604  22.230  18.067 -0.15 -0.02    +0.165 C  
DOCKED: ATOM      6  CA  UNL     1      13.682  21.403  17.329 -0.21 -0.03    +0.190 C  
DOCKED: ATOM      7  C   UNL     1      12.618  21.297  16.213 -0.28 -0.02    +0.240 C  
DOCKED: ATOM      8  O   UNL     1      12.553  20.970  15.052 -0.40 +0.02    -0.273 OA 
DOCKED: ATOM      9  N   UNL     1      11.655  21.887  16.980 -0.13 +0.03    -0.271 N  
DOCKED: ATOM     10  CA  UNL     1      10.870  22.984  16.398 -0.23 -0.01    +0.201 C  
DOCKED: ENDROOT
DOCKED: BRANCH   6  11
DOCKED: ATOM     11  N   UNL     1      14.957  22.083  16.993 -0.21 +0.07    -0.301 N  
DOCKED: ATOM     12  C   UNL     1      15.689  22.710  17.979 -0.18 -0.04    +0.218 C  
DOCKED: ATOM     13  O   UNL     1      15.325  22.718  19.153 -0.10 +0.03    -0.275 OA 
DOCKED: ATOM     14  H   UNL     1      15.311  22.084  16.042 -0.25 -0.04    +0.150 HD 
DOCKED: BRANCH  12  15
DOCKED: ATOM     15  C   UNL     1      16.962  23.385  17.508 -0.23 -0.02    +0.130 C  
DOCKED: BRANCH  15  16
DOCKED: ATOM     16  C   UNL     1      16.768  24.825  17.098 -0.26 +0.00    -0.039 A  
DOCKED: ATOM     17  C   UNL     1      15.641  25.541  17.522 -0.18 +0.00    +0.004 A  
DOCKED: ATOM     18  C   UNL     1      15.494  26.891  17.196 -0.18 +0.00    +0.000 A  
DOCKED: ATOM     19  C   UNL     1      16.472  27.540  16.444 -0.23 +0.00    +0.000 A  
DOCKED: ATOM     20  C   UNL     1      17.593  26.836  16.009 -0.28 +0.00    +0.000 A  
DOCKED: ATOM     21  C   UNL     1      17.742  25.486  16.334 -0.31 -0.00    +0.004 A  
DOCKED: ENDBRANCH  15  16
DOCKED: ENDBRANCH  12  15
DOCKED: ENDBRANCH   6  11
DOCKED: BRANCH  10  22
DOCKED: ATOM     22  C   UNL     1       9.463  22.525  16.007 -0.21 -0.06    +0.327 C  
DOCKED: ATOM     23  O   UNL     1       8.483  23.255  15.972 -0.26 +0.09    -0.249 OA 
DOCKED: BRANCH  22  24
DOCKED: ATOM     24  OXT UNL     1       9.413  21.248  15.552 -0.09 +0.06    -0.479 OA 
DOCKED: ATOM     25  HXT UNL     1      10.303  20.876  15.372 +0.18 -0.02    +0.295 HD 
DOCKED: ENDBRANCH  22  24
DOCKED: ENDBRANCH  10  22
DOCKED: TORSDOF 5
DOCKED: TER
DOCKED: ENDMDL
________________________________________________________________________________


    FINAL DOCKED STATE:
    ________________________


Run:   8 / 50
Time taken for this run:   0.000s

DOCKED: MODEL        8
DOCKED: USER    Run = 8
DOCKED: USER
DOCKED: USER    Estimated Free Energy of Binding    =  -3.49 kcal/mol  [=(1)+(2)+(3)-(4)]
DOCKED: USER
DOCKED: USER    (1) Final Intermolecular Energy     =  -4.98 kcal/mol
DOCKED: USER        vdW + Hbond + desolv Energy     =  -4.78 kcal/mol
DOCKED: USER        Electrostatic Energy            =  -0.20 kcal/mol
DOCKED: USER        Moving Ligand-Fixed Receptor    =  -4.98 kcal/mol
DOCKED: USER        Moving Ligand-Moving Receptor   =  +0.00 kcal/mol
DOCKED: USER    (2) Final Total Internal Energy     =  -1.77 kcal/mol
DOCKED: USER    (3) Torsional Free Energy           =  +1.49 kcal/mol
DOCKED: USER    (4) Unbound System's Energy         =  -1.77 kcal/mol
DOCKED: USER
DOCKED: USER
DOCKED: REMARK  Name = 
DOCKED: REMARK  7 active torsions:
DOCKED: REMARK  status: ('A' for Active; 'I' for Inactive)
DOCKED: REMARK    1  A    between atoms: C_1  and  C_2
DOCKED: REMARK    2  A    between atoms: C_2  and  C_3
DOCKED: REMARK    3  A    between atoms: CA_6  and  N_7
DOCKED: REMARK    4  A    between atoms: C_8  and  C_10
DOCKED: REMARK    5  A    between atoms: C_10  and  C_11
DOCKED: REMARK    6  A    between atoms: CA_20  and  C_21
DOCKED: REMARK    7  A    between atoms: C_21  and  OXT_23
DOCKED: REMARK                            x       y       z     vdW  Elec       q    Type
DOCKED: REMARK                         _______ _______ _______ _____ _____    ______ ____
DOCKED: USER                              x       y       z     vdW  Elec       q    Type
DOCKED: USER                           _______ _______ _______ _____ _____    ______ ____
DOCKED: ROOT
DOCKED: ATOM      1  C   UNL     1      14.627  23.548  17.512 -0.23 -0.00    +0.025 C  
DOCKED: ATOM      2  C   UNL     1      13.823  24.396  18.500 -0.13 -0.00    +0.042 C  
DOCKED: ATOM      3  C   UNL     1      14.520  24.439  19.865 -0.04 -0.00    +0.025 C  
DOCKED: ATOM      4  S   UNL     1      12.153  23.605  18.744 -0.11 +0.02    -0.127 S  
DOCKED: ATOM      5  C   UNL     1      11.413  25.200  19.275 -0.05 -0.04    +0.165 C  
DOCKED: ATOM      6  CA  UNL     1      10.159  25.726  18.538 -0.12 -0.11    +0.190 C  
DOCKED: ATOM      7  C   UNL     1      11.171  26.596  17.758 -0.17 -0.07    +0.240 C  
DOCKED: ATOM      8  O   UNL     1      11.199  27.278  16.761 -0.62 -0.03    -0.273 OA 
DOCKED: ATOM      9  N   UNL     1      12.214  26.219  18.554 -0.08 +0.03    -0.271 N  
DOCKED: ATOM     10  CA  UNL     1      13.458  25.770  17.914 -0.13 +0.02    +0.201 C  
DOCKED: ENDROOT
DOCKED: BRANCH   6  11
DOCKED: ATOM     11  N   UNL     1       9.359  24.748  17.761 -0.11 +0.17    -0.301 N  
DOCKED: ATOM     12  C   UNL     1       9.842  24.247  16.571 -0.21 -0.06    +0.218 C  
DOCKED: ATOM     13  O   UNL     1      10.938  24.577  16.125 -0.26 -0.02    -0.275 OA 
DOCKED: ATOM     14  H   UNL     1       8.457  24.427  18.100 +0.03 -0.09    +0.150 HD 
DOCKED: BRANCH  12  15
DOCKED: ATOM     15  C   UNL     1       8.925  23.271  15.862 -0.31 -0.04    +0.130 C  
DOCKED: BRANCH  15  16
DOCKED: ATOM     16  C   UNL     1       9.431  21.848  15.871 -0.28 +0.01    -0.039 A  
DOCKED: ATOM     17  C   UNL     1       8.544  20.775  15.710 -0.32 -0.00    +0.004 A  
DOCKED: ATOM     18  C   UNL     1       9.021  19.463  15.656 -0.36 -0.00    +0.000 A  
DOCKED: ATOM     19  C   UNL     1      10.388  19.210  15.760 -0.44 -0.00    +0.000 A  
DOCKED: ATOM     20  C   UNL     1      11.277  20.268  15.930 -0.38 -0.00    +0.000 A  
DOCKED: ATOM     21  C   UNL     1      10.804  21.580  15.985 -0.31 -0.00    +0.004 A  
DOCKED: ENDBRANCH  15  16
DOCKED: ENDBRANCH  12  15
DOCKED: ENDBRANCH   6  11
DOCKED: BRANCH  10  22
DOCKED: ATOM     22  C   UNL     1      14.546  26.844  17.982 -0.09 +0.03    +0.327 C  
DOCKED: ATOM     23  O   UNL     1      15.738  26.612  18.117 -0.08 -0.00    -0.249 OA 
DOCKED: BRANCH  22  24
DOCKED: ATOM     24  OXT UNL     1      14.092  28.097  17.729 -0.05 -0.10    -0.479 OA 
DOCKED: ATOM     25  HXT UNL     1      13.132  28.117  17.528 +0.06 +0.11    +0.295 HD 
DOCKED: ENDBRANCH  22  24
DOCKED: ENDBRANCH  10  22
DOCKED: TORSDOF 5
DOCKED: TER
DOCKED: ENDMDL
________________________________________________________________________________


    FINAL DOCKED STATE:
    ________________________


Run:   9 / 50
Time taken for this run:   0.000s

DOCKED: MODEL        9
DOCKED: USER    Run = 9
DOCKED: USER
DOCKED: USER    Estimated Free Energy of Binding    =  -4.47 kcal/mol  [=(1)+(2)+(3)-(4)]
DOCKED: USER
DOCKED: USER    (1) Final Intermolecular Energy     =  -5.97 kcal/mol
DOCKED: USER        vdW + Hbond + desolv Energy     =  -5.28 kcal/mol
DOCKED: USER        Electrostatic Energy            =  -0.68 kcal/mol
DOCKED: USER        Moving Ligand-Fixed Receptor    =  -5.97 kcal/mol
DOCKED: USER        Moving Ligand-Moving Receptor   =  +0.00 kcal/mol
DOCKED: USER    (2) Final Total Internal Energy     =  -1.79 kcal/mol
DOCKED: USER    (3) Torsional Free Energy           =  +1.49 kcal/mol
DOCKED: USER    (4) Unbound System's Energy         =  -1.79 kcal/mol
DOCKED: USER
DOCKED: USER
DOCKED: REMARK  Name = 
DOCKED: REMARK  7 active torsions:
DOCKED: REMARK  status: ('A' for Active; 'I' for Inactive)
DOCKED: REMARK    1  A    between atoms: C_1  and  C_2
DOCKED: REMARK    2  A    between atoms: C_2  and  C_3
DOCKED: REMARK    3  A    between atoms: CA_6  and  N_7
DOCKED: REMARK    4  A    between atoms: C_8  and  C_10
DOCKED: REMARK    5  A    between atoms: C_10  and  C_11
DOCKED: REMARK    6  A    between atoms: CA_20  and  C_21
DOCKED: REMARK    7  A    between atoms: C_21  and  OXT_23
DOCKED: REMARK                            x       y       z     vdW  Elec       q    Type
DOCKED: REMARK                         _______ _______ _______ _____ _____    ______ ____
DOCKED: USER                              x       y       z     vdW  Elec       q    Type
DOCKED: USER                           _______ _______ _______ _____ _____    ______ ____
DOCKED: ROOT
DOCKED: ATOM      1  C   UNL     1       9.055  31.185  18.025 -0.15 -0.02    +0.025 C  
DOCKED: ATOM      2  C   UNL     1       7.582  31.521  18.262 -0.17 -0.03    +0.042 C  
DOCKED: ATOM      3  C   UNL     1       7.445  32.865  18.987 -0.14 -0.01    +0.025 C  
DOCKED: ATOM      4  S   UNL     1       6.841  30.209  19.360 -0.15 +0.13    -0.127 S  
DOCKED: ATOM      5  C   UNL     1       5.148  30.573  18.747 -0.19 -0.18    +0.165 C  
DOCKED: ATOM      6  CA  UNL     1       4.299  29.421  18.162 -0.20 -0.21    +0.190 C  
DOCKED: ATOM      7  C   UNL     1       4.778  29.966  16.797 -0.27 -0.24    +0.240 C  
DOCKED: ATOM      8  O   UNL     1       4.804  29.615  15.641 -0.66 +0.15    -0.273 OA 
DOCKED: ATOM      9  N   UNL     1       5.369  31.058  17.363 -0.22 +0.24    -0.271 N  
DOCKED: ATOM     10  CA  UNL     1       6.748  31.388  16.976 -0.27 -0.14    +0.201 C  
DOCKED: ENDROOT
DOCKED: BRANCH   6  11
DOCKED: ATOM     11  N   UNL     1       4.687  28.033  18.517 -0.05 +0.37    -0.301 N  
DOCKED: ATOM     12  C   UNL     1       4.351  27.513  19.748 -0.05 -0.17    +0.218 C  
DOCKED: ATOM     13  O   UNL     1       3.718  28.163  20.578 -0.02 +0.19    -0.275 OA 
DOCKED: ATOM     14  H   UNL     1       5.191  27.449  17.857 -0.42 -0.31    +0.150 HD 
DOCKED: BRANCH  12  15
DOCKED: ATOM     15  C   UNL     1       4.820  26.094  20.000 -0.04 -0.08    +0.130 C  
DOCKED: BRANCH  15  16
DOCKED: ATOM     16  C   UNL     1       5.157  25.335  18.739 -0.08 +0.03    -0.039 A  
DOCKED: ATOM     17  C   UNL     1       4.172  25.079  17.777 -0.10 -0.00    +0.004 A  
DOCKED: ATOM     18  C   UNL     1       4.498  24.433  16.582 -0.20 -0.00    +0.000 A  
DOCKED: ATOM     19  C   UNL     1       5.812  24.036  16.337 -0.22 -0.00    +0.000 A  
DOCKED: ATOM     20  C   UNL     1       6.798  24.277  17.292 -0.19 -0.00    +0.000 A  
DOCKED: ATOM     21  C   UNL     1       6.474  24.923  18.486 -0.12 -0.00    +0.004 A  
DOCKED: ENDBRANCH  15  16
DOCKED: ENDBRANCH  12  15
DOCKED: ENDBRANCH   6  11
DOCKED: BRANCH  10  22
DOCKED: ATOM     22  C   UNL     1       6.794  32.578  16.016 -0.26 +0.07    +0.327 C  
DOCKED: ATOM     23  O   UNL     1       7.589  33.503  16.100 -0.34 -0.17    -0.249 OA 
DOCKED: BRANCH  22  24
DOCKED: ATOM     24  OXT UNL     1       5.962  32.453  14.953 -0.62 -0.17    -0.479 OA 
DOCKED: ATOM     25  HXT UNL     1       5.545  31.566  14.901 -0.15 -0.11    +0.295 HD 
DOCKED: ENDBRANCH  22  24
DOCKED: ENDBRANCH  10  22
DOCKED: TORSDOF 5
DOCKED: TER
DOCKED: ENDMDL
________________________________________________________________________________


    FINAL DOCKED STATE:
    ________________________


Run:   10 / 50
Time taken for this run:   0.000s

DOCKED: MODEL        10
DOCKED: USER    Run = 10
DOCKED: USER
DOCKED: USER    Estimated Free Energy of Binding    =  -3.65 kcal/mol  [=(1)+(2)+(3)-(4)]
DOCKED: USER
DOCKED: USER    (1) Final Intermolecular Energy     =  -5.14 kcal/mol
DOCKED: USER        vdW + Hbond + desolv Energy     =  -5.18 kcal/mol
DOCKED: USER        Electrostatic Energy            =  +0.04 kcal/mol
DOCKED: USER        Moving Ligand-Fixed Receptor    =  -5.14 kcal/mol
DOCKED: USER        Moving Ligand-Moving Receptor   =  +0.00 kcal/mol
DOCKED: USER    (2) Final Total Internal Energy     =  -1.72 kcal/mol
DOCKED: USER    (3) Torsional Free Energy           =  +1.49 kcal/mol
DOCKED: USER    (4) Unbound System's Energy         =  -1.72 kcal/mol
DOCKED: USER
DOCKED: USER
DOCKED: REMARK  Name = 
DOCKED: REMARK  7 active torsions:
DOCKED: REMARK  status: ('A' for Active; 'I' for Inactive)
DOCKED: REMARK    1  A    between atoms: C_1  and  C_2
DOCKED: REMARK    2  A    between atoms: C_2  and  C_3
DOCKED: REMARK    3  A    between atoms: CA_6  and  N_7
DOCKED: REMARK    4  A    between atoms: C_8  and  C_10
DOCKED: REMARK    5  A    between atoms: C_10  and  C_11
DOCKED: REMARK    6  A    between atoms: CA_20  and  C_21
DOCKED: REMARK    7  A    between atoms: C_21  and  OXT_23
DOCKED: REMARK                            x       y       z     vdW  Elec       q    Type
DOCKED: REMARK                         _______ _______ _______ _____ _____    ______ ____
DOCKED: USER                              x       y       z     vdW  Elec       q    Type
DOCKED: USER                           _______ _______ _______ _____ _____    ______ ____
DOCKED: ROOT
DOCKED: ATOM      1  C   UNL     1      10.425  19.261  17.768 -0.21 -0.00    +0.025 C  
DOCKED: ATOM      2  C   UNL     1      10.309  20.159  16.535 -0.34 -0.01    +0.042 C  
DOCKED: ATOM      3  C   UNL     1      10.319  19.318  15.253 -0.45 -0.00    +0.025 C  
DOCKED: ATOM      4  S   UNL     1      11.790  21.289  16.479 -0.39 +0.01    -0.127 S  
DOCKED: ATOM      5  C   UNL     1      10.886  22.515  15.452 -0.19 +0.00    +0.165 C  
DOCKED: ATOM      6  CA  UNL     1      10.798  23.980  15.939 -0.28 +0.00    +0.190 C  
DOCKED: ATOM      7  C   UNL     1       9.402  23.564  16.453 -0.22 -0.07    +0.240 C  
DOCKED: ATOM      8  O   UNL     1       8.545  23.989  17.192 -0.16 +0.14    -0.273 OA 
DOCKED: ATOM      9  N   UNL     1       9.471  22.338  15.855 -0.20 +0.05    -0.271 N  
DOCKED: ATOM     10  CA  UNL     1       9.139  21.150  16.653 -0.19 -0.04    +0.201 C  
DOCKED: ENDROOT
DOCKED: BRANCH   6  11
DOCKED: ATOM     11  N   UNL     1      11.790  24.430  16.947 -0.12 -0.02    -0.301 N  
DOCKED: ATOM     12  C   UNL     1      11.887  25.765  17.276 -0.09 +0.03    +0.218 C  
DOCKED: ATOM     13  O   UNL     1      11.161  26.615  16.765 -0.60 -0.05    -0.275 OA 
DOCKED: ATOM     14  H   UNL     1      12.396  23.763  17.413 +0.05 +0.00    +0.150 HD 
DOCKED: BRANCH  12  15
DOCKED: ATOM     15  C   UNL     1      12.950  26.101  18.303 -0.14 -0.00    +0.130 C  
DOCKED: BRANCH  15  16
DOCKED: ATOM     16  C   UNL     1      14.328  25.608  17.933 -0.14 -0.00    -0.039 A  
DOCKED: ATOM     17  C   UNL     1      14.669  24.259  18.096 -0.17 -0.00    +0.004 A  
DOCKED: ATOM     18  C   UNL     1      15.923  23.791  17.694 -0.26 -0.00    +0.000 A  
DOCKED: ATOM     19  C   UNL     1      16.846  24.665  17.124 -0.29 -0.00    +0.000 A  
DOCKED: ATOM     20  C   UNL     1      16.521  26.010  16.965 -0.24 +0.00    +0.000 A  
DOCKED: ATOM     21  C   UNL     1      15.270  26.481  17.366 -0.17 +0.00    +0.004 A  
DOCKED: ENDBRANCH  15  16
DOCKED: ENDBRANCH  12  15
DOCKED: ENDBRANCH   6  11
DOCKED: BRANCH  10  22
DOCKED: ATOM     22  C   UNL     1       7.754  20.603  16.302 -0.16 -0.06    +0.327 C  
DOCKED: ATOM     23  O   UNL     1       7.478  19.415  16.228 -0.21 +0.03    -0.249 OA 
DOCKED: BRANCH  22  24
DOCKED: ATOM     24  OXT UNL     1       6.796  21.560  16.218 -0.10 +0.14    -0.479 OA 
DOCKED: ATOM     25  HXT UNL     1       7.124  22.448  16.477 +0.10 -0.11    +0.295 HD 
DOCKED: ENDBRANCH  22  24
DOCKED: ENDBRANCH  10  22
DOCKED: TORSDOF 5
DOCKED: TER
DOCKED: ENDMDL
________________________________________________________________________________


    FINAL DOCKED STATE:
    ________________________


Run:   11 / 50
Time taken for this run:   0.000s

DOCKED: MODEL        11
DOCKED: USER    Run = 11
DOCKED: USER
DOCKED: USER    Estimated Free Energy of Binding    =  -4.00 kcal/mol  [=(1)+(2)+(3)-(4)]
DOCKED: USER
DOCKED: USER    (1) Final Intermolecular Energy     =  -5.49 kcal/mol
DOCKED: USER        vdW + Hbond + desolv Energy     =  -4.82 kcal/mol
DOCKED: USER        Electrostatic Energy            =  -0.67 kcal/mol
DOCKED: USER        Moving Ligand-Fixed Receptor    =  -5.49 kcal/mol
DOCKED: USER        Moving Ligand-Moving Receptor   =  +0.00 kcal/mol
DOCKED: USER    (2) Final Total Internal Energy     =  -1.99 kcal/mol
DOCKED: USER    (3) Torsional Free Energy           =  +1.49 kcal/mol
DOCKED: USER    (4) Unbound System's Energy         =  -1.99 kcal/mol
DOCKED: USER
DOCKED: USER
DOCKED: REMARK  Name = 
DOCKED: REMARK  7 active torsions:
DOCKED: REMARK  status: ('A' for Active; 'I' for Inactive)
DOCKED: REMARK    1  A    between atoms: C_1  and  C_2
DOCKED: REMARK    2  A    between atoms: C_2  and  C_3
DOCKED: REMARK    3  A    between atoms: CA_6  and  N_7
DOCKED: REMARK    4  A    between atoms: C_8  and  C_10
DOCKED: REMARK    5  A    between atoms: C_10  and  C_11
DOCKED: REMARK    6  A    between atoms: CA_20  and  C_21
DOCKED: REMARK    7  A    between atoms: C_21  and  OXT_23
DOCKED: REMARK                            x       y       z     vdW  Elec       q    Type
DOCKED: REMARK                         _______ _______ _______ _____ _____    ______ ____
DOCKED: USER                              x       y       z     vdW  Elec       q    Type
DOCKED: USER                           _______ _______ _______ _____ _____    ______ ____
DOCKED: ROOT
DOCKED: ATOM      1  C   UNL     1       9.474  31.159  17.549 -0.17 -0.02    +0.025 C  
DOCKED: ATOM      2  C   UNL     1       8.087  31.523  18.083 -0.18 -0.03    +0.042 C  
DOCKED: ATOM      3  C   UNL     1       8.140  32.842  18.864 -0.11 -0.01    +0.025 C  
DOCKED: ATOM      4  S   UNL     1       7.535  30.190  19.263 -0.13 +0.13    -0.127 S  
DOCKED: ATOM      5  C   UNL     1       5.767  30.621  19.009 -0.16 -0.17    +0.165 C  
DOCKED: ATOM      6  CA  UNL     1       4.782  29.514  18.567 -0.17 -0.22    +0.190 C  
DOCKED: ATOM      7  C   UNL     1       5.001  30.098  17.153 -0.25 -0.26    +0.240 C  
DOCKED: ATOM      8  O   UNL     1       4.788  29.792  16.003 -0.65 +0.20    -0.273 OA 
DOCKED: ATOM      9  N   UNL     1       5.728  31.152  17.626 -0.18 +0.24    -0.271 N  
DOCKED: ATOM     10  CA  UNL     1       7.013  31.461  16.984 -0.26 -0.14    +0.201 C  
DOCKED: ENDROOT
DOCKED: BRANCH   6  11
DOCKED: ATOM     11  N   UNL     1       5.187  28.104  18.793 -0.03 +0.40    -0.301 N  
DOCKED: ATOM     12  C   UNL     1       5.114  27.556  20.055 -0.05 -0.18    +0.218 C  
DOCKED: ATOM     13  O   UNL     1       4.706  28.199  21.020 -0.02 +0.18    -0.275 OA 
DOCKED: ATOM     14  H   UNL     1       5.509  27.526  18.023 -0.42 -0.35    +0.150 HD 
DOCKED: BRANCH  12  15
DOCKED: ATOM     15  C   UNL     1       5.573  26.116  20.162 -0.05 -0.09    +0.130 C  
DOCKED: BRANCH  15  16
DOCKED: ATOM     16  C   UNL     1       6.964  25.882  19.622 -0.09 +0.03    -0.039 A  
DOCKED: ATOM     17  C   UNL     1       7.213  24.834  18.727 -0.12 -0.00    +0.004 A  
DOCKED: ATOM     18  C   UNL     1       8.487  24.657  18.179 -0.15 -0.00    +0.000 A  
DOCKED: ATOM     19  C   UNL     1       9.522  25.527  18.520 -0.13 -0.00    +0.000 A  
DOCKED: ATOM     20  C   UNL     1       9.286  26.567  19.416 -0.10 -0.00    +0.000 A  
DOCKED: ATOM     21  C   UNL     1       8.016  26.745  19.965 -0.09 -0.00    +0.004 A  
DOCKED: ENDBRANCH  15  16
DOCKED: ENDBRANCH  12  15
DOCKED: ENDBRANCH   6  11
DOCKED: BRANCH  10  22
DOCKED: ATOM     22  C   UNL     1       6.909  32.686  16.073 -0.22 +0.09    +0.327 C  
DOCKED: ATOM     23  O   UNL     1       7.697  33.620  16.077 -0.29 -0.18    -0.249 OA 
DOCKED: BRANCH  22  24
DOCKED: ATOM     24  OXT UNL     1       5.934  32.586  15.136 -0.66 -0.20    -0.479 OA 
DOCKED: ATOM     25  HXT UNL     1       5.474  31.719  15.159 -0.13 -0.09    +0.295 HD 
DOCKED: ENDBRANCH  22  24
DOCKED: ENDBRANCH  10  22
DOCKED: TORSDOF 5
DOCKED: TER
DOCKED: ENDMDL
________________________________________________________________________________


    FINAL DOCKED STATE:
    ________________________


Run:   12 / 50
Time taken for this run:   0.000s

DOCKED: MODEL        12
DOCKED: USER    Run = 12
DOCKED: USER
DOCKED: USER    Estimated Free Energy of Binding    =  -3.66 kcal/mol  [=(1)+(2)+(3)-(4)]
DOCKED: USER
DOCKED: USER    (1) Final Intermolecular Energy     =  -5.15 kcal/mol
DOCKED: USER        vdW + Hbond + desolv Energy     =  -5.18 kcal/mol
DOCKED: USER        Electrostatic Energy            =  +0.04 kcal/mol
DOCKED: USER        Moving Ligand-Fixed Receptor    =  -5.15 kcal/mol
DOCKED: USER        Moving Ligand-Moving Receptor   =  +0.00 kcal/mol
DOCKED: USER    (2) Final Total Internal Energy     =  -1.71 kcal/mol
DOCKED: USER    (3) Torsional Free Energy           =  +1.49 kcal/mol
DOCKED: USER    (4) Unbound System's Energy         =  -1.71 kcal/mol
DOCKED: USER
DOCKED: USER
DOCKED: REMARK  Name = 
DOCKED: REMARK  7 active torsions:
DOCKED: REMARK  status: ('A' for Active; 'I' for Inactive)
DOCKED: REMARK    1  A    between atoms: C_1  and  C_2
DOCKED: REMARK    2  A    between atoms: C_2  and  C_3
DOCKED: REMARK    3  A    between atoms: CA_6  and  N_7
DOCKED: REMARK    4  A    between atoms: C_8  and  C_10
DOCKED: REMARK    5  A    between atoms: C_10  and  C_11
DOCKED: REMARK    6  A    between atoms: CA_20  and  C_21
DOCKED: REMARK    7  A    between atoms: C_21  and  OXT_23
DOCKED: REMARK                            x       y       z     vdW  Elec       q    Type
DOCKED: REMARK                         _______ _______ _______ _____ _____    ______ ____
DOCKED: USER                              x       y       z     vdW  Elec       q    Type
DOCKED: USER                           _______ _______ _______ _____ _____    ______ ____
DOCKED: ROOT
DOCKED: ATOM      1  C   UNL     1      10.424  19.248  17.769 -0.21 -0.00    +0.025 C  
DOCKED: ATOM      2  C   UNL     1      10.303  20.154  16.542 -0.34 -0.01    +0.042 C  
DOCKED: ATOM      3  C   UNL     1      10.313  19.321  15.254 -0.45 -0.00    +0.025 C  
DOCKED: ATOM      4  S   UNL     1      11.781  21.288  16.491 -0.39 +0.01    -0.127 S  
DOCKED: ATOM      5  C   UNL     1      10.871  22.519  15.474 -0.20 +0.00    +0.165 C  
DOCKED: ATOM      6  CA  UNL     1      10.780  23.980  15.971 -0.28 +0.00    +0.190 C  
DOCKED: ATOM      7  C   UNL     1       9.385  23.556  16.485 -0.22 -0.07    +0.240 C  
DOCKED: ATOM      8  O   UNL     1       8.528  23.974  17.228 -0.16 +0.14    -0.273 OA 
DOCKED: ATOM      9  N   UNL     1       9.457  22.335  15.878 -0.20 +0.05    -0.271 N  
DOCKED: ATOM     10  CA  UNL     1       9.130  21.140  16.669 -0.19 -0.04    +0.201 C  
DOCKED: ENDROOT
DOCKED: BRANCH   6  11
DOCKED: ATOM     11  N   UNL     1      11.772  24.426  16.980 -0.12 -0.02    -0.301 N  
DOCKED: ATOM     12  C   UNL     1      11.881  25.762  17.301 -0.10 +0.03    +0.218 C  
DOCKED: ATOM     13  O   UNL     1      11.166  26.616  16.782 -0.60 -0.05    -0.275 OA 
DOCKED: ATOM     14  H   UNL     1      12.370  23.756  17.453 +0.05 -0.00    +0.150 HD 
DOCKED: BRANCH  12  15
DOCKED: ATOM     15  C   UNL     1      12.943  26.094  18.331 -0.13 -0.00    +0.130 C  
DOCKED: BRANCH  15  16
DOCKED: ATOM     16  C   UNL     1      14.329  25.638  17.940 -0.14 -0.00    -0.039 A  
DOCKED: ATOM     17  C   UNL     1      14.704  24.296  18.084 -0.16 -0.00    +0.004 A  
DOCKED: ATOM     18  C   UNL     1      15.965  23.864  17.664 -0.26 -0.00    +0.000 A  
DOCKED: ATOM     19  C   UNL     1      16.860  24.767  17.094 -0.28 -0.00    +0.000 A  
DOCKED: ATOM     20  C   UNL     1      16.501  26.105  16.954 -0.24 +0.00    +0.000 A  
DOCKED: ATOM     21  C   UNL     1      15.243  26.540  17.373 -0.17 +0.00    +0.004 A  
DOCKED: ENDBRANCH  15  16
DOCKED: ENDBRANCH  12  15
DOCKED: ENDBRANCH   6  11
DOCKED: BRANCH  10  22
DOCKED: ATOM     22  C   UNL     1       7.746  20.592  16.316 -0.16 -0.06    +0.327 C  
DOCKED: ATOM     23  O   UNL     1       7.470  19.403  16.250 -0.21 +0.03    -0.249 OA 
DOCKED: BRANCH  22  24
DOCKED: ATOM     24  OXT UNL     1       6.789  21.548  16.223 -0.10 +0.14    -0.479 OA 
DOCKED: ATOM     25  HXT UNL     1       7.107  22.431  16.508 +0.10 -0.11    +0.295 HD 
DOCKED: ENDBRANCH  22  24
DOCKED: ENDBRANCH  10  22
DOCKED: TORSDOF 5
DOCKED: TER
DOCKED: ENDMDL
________________________________________________________________________________


    FINAL DOCKED STATE:
    ________________________


Run:   13 / 50
Time taken for this run:   0.000s

DOCKED: MODEL        13
DOCKED: USER    Run = 13
DOCKED: USER
DOCKED: USER    Estimated Free Energy of Binding    =  -3.58 kcal/mol  [=(1)+(2)+(3)-(4)]
DOCKED: USER
DOCKED: USER    (1) Final Intermolecular Energy     =  -5.07 kcal/mol
DOCKED: USER        vdW + Hbond + desolv Energy     =  -5.11 kcal/mol
DOCKED: USER        Electrostatic Energy            =  +0.05 kcal/mol
DOCKED: USER        Moving Ligand-Fixed Receptor    =  -5.07 kcal/mol
DOCKED: USER        Moving Ligand-Moving Receptor   =  +0.00 kcal/mol
DOCKED: USER    (2) Final Total Internal Energy     =  -1.69 kcal/mol
DOCKED: USER    (3) Torsional Free Energy           =  +1.49 kcal/mol
DOCKED: USER    (4) Unbound System's Energy         =  -1.69 kcal/mol
DOCKED: USER
DOCKED: USER
DOCKED: REMARK  Name = 
DOCKED: REMARK  7 active torsions:
DOCKED: REMARK  status: ('A' for Active; 'I' for Inactive)
DOCKED: REMARK    1  A    between atoms: C_1  and  C_2
DOCKED: REMARK    2  A    between atoms: C_2  and  C_3
DOCKED: REMARK    3  A    between atoms: CA_6  and  N_7
DOCKED: REMARK    4  A    between atoms: C_8  and  C_10
DOCKED: REMARK    5  A    between atoms: C_10  and  C_11
DOCKED: REMARK    6  A    between atoms: CA_20  and  C_21
DOCKED: REMARK    7  A    between atoms: C_21  and  OXT_23
DOCKED: REMARK                            x       y       z     vdW  Elec       q    Type
DOCKED: REMARK                         _______ _______ _______ _____ _____    ______ ____
DOCKED: USER                              x       y       z     vdW  Elec       q    Type
DOCKED: USER                           _______ _______ _______ _____ _____    ______ ____
DOCKED: ROOT
DOCKED: ATOM      1  C   UNL     1      10.426  19.158  17.775 -0.21 -0.00    +0.025 C  
DOCKED: ATOM      2  C   UNL     1      10.377  20.017  16.509 -0.35 -0.01    +0.042 C  
DOCKED: ATOM      3  C   UNL     1      10.424  19.134  15.256 -0.49 -0.00    +0.025 C  
DOCKED: ATOM      4  S   UNL     1      11.878  21.121  16.479 -0.40 +0.01    -0.127 S  
DOCKED: ATOM      5  C   UNL     1      11.038  22.327  15.376 -0.11 +0.00    +0.165 C  
DOCKED: ATOM      6  CA  UNL     1      10.955  23.809  15.811 -0.24 +0.01    +0.190 C  
DOCKED: ATOM      7  C   UNL     1       9.532  23.431  16.280 -0.24 -0.06    +0.240 C  
DOCKED: ATOM      8  O   UNL     1       8.652  23.894  16.969 -0.18 +0.13    -0.273 OA 
DOCKED: ATOM      9  N   UNL     1       9.604  22.186  15.725 -0.20 +0.04    -0.271 N  
DOCKED: ATOM     10  CA  UNL     1       9.220  21.030  16.547 -0.21 -0.03    +0.201 C  
DOCKED: ENDROOT
DOCKED: BRANCH   6  11
DOCKED: ATOM     11  N   UNL     1      11.913  24.275  16.844 -0.12 -0.03    -0.301 N  
DOCKED: ATOM     12  C   UNL     1      11.918  25.596  17.238 -0.10 +0.03    +0.218 C  
DOCKED: ATOM     13  O   UNL     1      11.137  26.419  16.765 -0.58 -0.04    -0.275 OA 
DOCKED: ATOM     14  H   UNL     1      12.562  23.629  17.281 +0.05 +0.00    +0.150 HD 
DOCKED: BRANCH  12  15
DOCKED: ATOM     15  C   UNL     1      12.954  25.954  18.285 -0.14 -0.00    +0.130 C  
DOCKED: BRANCH  15  16
DOCKED: ATOM     16  C   UNL     1      14.366  25.599  17.886 -0.14 -0.00    -0.039 A  
DOCKED: ATOM     17  C   UNL     1      15.235  26.581  17.393 -0.17 +0.00    +0.004 A  
DOCKED: ATOM     18  C   UNL     1      16.560  26.265  17.084 -0.22 +0.00    +0.000 A  
DOCKED: ATOM     19  C   UNL     1      17.030  24.965  17.267 -0.25 -0.00    +0.000 A  
DOCKED: ATOM     20  C   UNL     1      16.173  23.979  17.748 -0.25 -0.00    +0.000 A  
DOCKED: ATOM     21  C   UNL     1      14.848  24.292  18.057 -0.17 -0.00    +0.004 A  
DOCKED: ENDBRANCH  15  16
DOCKED: ENDBRANCH  12  15
DOCKED: ENDBRANCH   6  11
DOCKED: BRANCH  10  22
DOCKED: ATOM     22  C   UNL     1       7.841  20.494  16.156 -0.16 -0.06    +0.327 C  
DOCKED: ATOM     23  O   UNL     1       7.543  19.309  16.125 -0.22 +0.02    -0.249 OA 
DOCKED: BRANCH  22  24
DOCKED: ATOM     24  OXT UNL     1       6.909  21.463  15.982 -0.12 +0.14    -0.479 OA 
DOCKED: ATOM     25  HXT UNL     1       7.248  22.358  16.201 +0.10 -0.11    +0.295 HD 
DOCKED: ENDBRANCH  22  24
DOCKED: ENDBRANCH  10  22
DOCKED: TORSDOF 5
DOCKED: TER
DOCKED: ENDMDL
________________________________________________________________________________


    FINAL DOCKED STATE:
    ________________________


Run:   14 / 50
Time taken for this run:   0.000s

DOCKED: MODEL        14
DOCKED: USER    Run = 14
DOCKED: USER
DOCKED: USER    Estimated Free Energy of Binding    =  -3.80 kcal/mol  [=(1)+(2)+(3)-(4)]
DOCKED: USER
DOCKED: USER    (1) Final Intermolecular Energy     =  -5.29 kcal/mol
DOCKED: USER        vdW + Hbond + desolv Energy     =  -4.56 kcal/mol
DOCKED: USER        Electrostatic Energy            =  -0.73 kcal/mol
DOCKED: USER        Moving Ligand-Fixed Receptor    =  -5.29 kcal/mol
DOCKED: USER        Moving Ligand-Moving Receptor   =  +0.00 kcal/mol
DOCKED: USER    (2) Final Total Internal Energy     =  -1.78 kcal/mol
DOCKED: USER    (3) Torsional Free Energy           =  +1.49 kcal/mol
DOCKED: USER    (4) Unbound System's Energy         =  -1.78 kcal/mol
DOCKED: USER
DOCKED: USER
DOCKED: REMARK  Name = 
DOCKED: REMARK  7 active torsions:
DOCKED: REMARK  status: ('A' for Active; 'I' for Inactive)
DOCKED: REMARK    1  A    between atoms: C_1  and  C_2
DOCKED: REMARK    2  A    between atoms: C_2  and  C_3
DOCKED: REMARK    3  A    between atoms: CA_6  and  N_7
DOCKED: REMARK    4  A    between atoms: C_8  and  C_10
DOCKED: REMARK    5  A    between atoms: C_10  and  C_11
DOCKED: REMARK    6  A    between atoms: CA_20  and  C_21
DOCKED: REMARK    7  A    between atoms: C_21  and  OXT_23
DOCKED: REMARK                            x       y       z     vdW  Elec       q    Type
DOCKED: REMARK                         _______ _______ _______ _____ _____    ______ ____
DOCKED: USER                              x       y       z     vdW  Elec       q    Type
DOCKED: USER                           _______ _______ _______ _____ _____    ______ ____
DOCKED: ROOT
DOCKED: ATOM      1  C   UNL     1       9.047  31.124  17.797 -0.15 -0.02    +0.025 C  
DOCKED: ATOM      2  C   UNL     1       7.678  31.348  18.442 -0.16 -0.03    +0.042 C  
DOCKED: ATOM      3  C   UNL     1       7.749  32.477  19.478 -0.10 -0.01    +0.025 C  
DOCKED: ATOM      4  S   UNL     1       7.179  29.791  19.338 -0.13 +0.15    -0.127 S  
DOCKED: ATOM      5  C   UNL     1       5.400  30.238  19.239 -0.15 -0.18    +0.165 C  
DOCKED: ATOM      6  CA  UNL     1       4.408  29.232  18.610 -0.16 -0.21    +0.190 C  
DOCKED: ATOM      7  C   UNL     1       4.571  30.099  17.342 -0.26 -0.25    +0.240 C  
DOCKED: ATOM      8  O   UNL     1       4.319  30.035  16.162 -0.57 +0.15    -0.273 OA 
DOCKED: ATOM      9  N   UNL     1       5.306  31.044  17.998 -0.17 +0.27    -0.271 N  
DOCKED: ATOM     10  CA  UNL     1       6.565  31.498  17.392 -0.24 -0.14    +0.201 C  
DOCKED: ENDROOT
DOCKED: BRANCH   6  11
DOCKED: ATOM     11  N   UNL     1       4.833  27.812  18.525 -0.02 +0.39    -0.301 N  
DOCKED: ATOM     12  C   UNL     1       4.247  26.864  19.336 -0.05 -0.17    +0.218 C  
DOCKED: ATOM     13  O   UNL     1       3.360  27.152  20.136 -0.01 +0.16    -0.275 OA 
DOCKED: ATOM     14  H   UNL     1       5.545  27.522  17.863 -0.41 -0.39    +0.150 HD 
DOCKED: BRANCH  12  15
DOCKED: ATOM     15  C   UNL     1       4.778  25.454  19.169 -0.06 -0.09    +0.130 C  
DOCKED: BRANCH  15  16
DOCKED: ATOM     16  C   UNL     1       6.269  25.392  18.939 -0.09 +0.04    -0.039 A  
DOCKED: ATOM     17  C   UNL     1       7.145  26.140  19.737 -0.09 -0.00    +0.004 A  
DOCKED: ATOM     18  C   UNL     1       8.528  26.033  19.565 -0.10 -0.00    +0.000 A  
DOCKED: ATOM     19  C   UNL     1       9.048  25.177  18.595 -0.13 -0.00    +0.000 A  
DOCKED: ATOM     20  C   UNL     1       8.186  24.437  17.790 -0.17 -0.00    +0.000 A  
DOCKED: ATOM     21  C   UNL     1       6.805  24.541  17.960 -0.15 -0.00    +0.004 A  
DOCKED: ENDBRANCH  15  16
DOCKED: ENDBRANCH  12  15
DOCKED: ENDBRANCH   6  11
DOCKED: BRANCH  10  22
DOCKED: ATOM     22  C   UNL     1       6.418  32.884  16.758 -0.18 +0.05    +0.327 C  
DOCKED: ATOM     23  O   UNL     1       7.046  33.873  17.106 -0.40 -0.16    -0.249 OA 
DOCKED: BRANCH  22  24
DOCKED: ATOM     24  OXT UNL     1       5.624  32.898  15.659 -0.56 -0.20    -0.479 OA 
DOCKED: ATOM     25  HXT UNL     1       5.153  32.048  15.521 -0.04 -0.08    +0.295 HD 
DOCKED: ENDBRANCH  22  24
DOCKED: ENDBRANCH  10  22
DOCKED: TORSDOF 5
DOCKED: TER
DOCKED: ENDMDL
________________________________________________________________________________


    FINAL DOCKED STATE:
    ________________________


Run:   15 / 50
Time taken for this run:   0.000s

DOCKED: MODEL        15
DOCKED: USER    Run = 15
DOCKED: USER
DOCKED: USER    Estimated Free Energy of Binding    =  -3.63 kcal/mol  [=(1)+(2)+(3)-(4)]
DOCKED: USER
DOCKED: USER    (1) Final Intermolecular Energy     =  -5.12 kcal/mol
DOCKED: USER        vdW + Hbond + desolv Energy     =  -4.83 kcal/mol
DOCKED: USER        Electrostatic Energy            =  -0.29 kcal/mol
DOCKED: USER        Moving Ligand-Fixed Receptor    =  -5.12 kcal/mol
DOCKED: USER        Moving Ligand-Moving Receptor   =  +0.00 kcal/mol
DOCKED: USER    (2) Final Total Internal Energy     =  -1.68 kcal/mol
DOCKED: USER    (3) Torsional Free Energy           =  +1.49 kcal/mol
DOCKED: USER    (4) Unbound System's Energy         =  -1.68 kcal/mol
DOCKED: USER
DOCKED: USER
DOCKED: REMARK  Name = 
DOCKED: REMARK  7 active torsions:
DOCKED: REMARK  status: ('A' for Active; 'I' for Inactive)
DOCKED: REMARK    1  A    between atoms: C_1  and  C_2
DOCKED: REMARK    2  A    between atoms: C_2  and  C_3
DOCKED: REMARK    3  A    between atoms: CA_6  and  N_7
DOCKED: REMARK    4  A    between atoms: C_8  and  C_10
DOCKED: REMARK    5  A    between atoms: C_10  and  C_11
DOCKED: REMARK    6  A    between atoms: CA_20  and  C_21
DOCKED: REMARK    7  A    between atoms: C_21  and  OXT_23
DOCKED: REMARK                            x       y       z     vdW  Elec       q    Type
DOCKED: REMARK                         _______ _______ _______ _____ _____    ______ ____
DOCKED: USER                              x       y       z     vdW  Elec       q    Type
DOCKED: USER                           _______ _______ _______ _____ _____    ______ ____
DOCKED: ROOT
DOCKED: ATOM      1  C   UNL     1      19.318  29.619   9.649 -0.47 -0.01    +0.025 C  
DOCKED: ATOM      2  C   UNL     1      19.984  30.761  10.419 -0.34 -0.01    +0.042 C  
DOCKED: ATOM      3  C   UNL     1      21.263  30.271  11.110 -0.25 -0.01    +0.025 C  
DOCKED: ATOM      4  S   UNL     1      18.814  31.346  11.747 -0.24 +0.11    -0.127 S  
DOCKED: ATOM      5  C   UNL     1      19.625  32.994  11.813 -0.06 -0.07    +0.165 C  
DOCKED: ATOM      6  CA  UNL     1      18.762  34.262  11.621 -0.05 -0.09    +0.190 C  
DOCKED: ATOM      7  C   UNL     1      19.275  34.204  10.164 -0.06 -0.06    +0.240 C  
DOCKED: ATOM      8  O   UNL     1      19.017  34.700   9.093 -0.08 +0.01    -0.273 OA 
DOCKED: ATOM      9  N   UNL     1      20.144  33.188  10.437 -0.04 +0.06    -0.271 N  
DOCKED: ATOM     10  CA  UNL     1      20.156  32.017   9.549 -0.20 -0.01    +0.201 C  
DOCKED: ENDROOT
DOCKED: BRANCH   6  11
DOCKED: ATOM     11  N   UNL     1      17.299  34.136  11.835 -0.04 +0.27    -0.301 N  
DOCKED: ATOM     12  C   UNL     1      16.526  35.262  12.019 -0.06 -0.12    +0.218 C  
DOCKED: ATOM     13  O   UNL     1      17.009  36.392  12.002 -0.01 +0.09    -0.275 OA 
DOCKED: ATOM     14  H   UNL     1      16.851  33.225  11.835 -0.44 -0.30    +0.150 HD 
DOCKED: BRANCH  12  15
DOCKED: ATOM     15  C   UNL     1      15.050  35.002  12.247 -0.12 -0.08    +0.130 C  
DOCKED: BRANCH  15  16
DOCKED: ATOM     16  C   UNL     1      14.332  34.478  11.026 -0.17 +0.03    -0.039 A  
DOCKED: ATOM     17  C   UNL     1      14.736  34.865   9.742 -0.20 -0.00    +0.004 A  
DOCKED: ATOM     18  C   UNL     1      14.112  34.331   8.612 -0.36 -0.00    +0.000 A  
DOCKED: ATOM     19  C   UNL     1      13.080  33.405   8.754 -0.36 -0.00    +0.000 A  
DOCKED: ATOM     20  C   UNL     1      12.664  33.021  10.026 -0.37 -0.00    +0.000 A  
DOCKED: ATOM     21  C   UNL     1      13.285  33.553  11.157 -0.24 -0.00    +0.004 A  
DOCKED: ENDBRANCH  15  16
DOCKED: ENDBRANCH  12  15
DOCKED: ENDBRANCH   6  11
DOCKED: BRANCH  10  22
DOCKED: ATOM     22  C   UNL     1      21.367  32.031   8.614 -0.19 +0.07    +0.327 C  
DOCKED: ATOM     23  O   UNL     1      22.176  31.119   8.519 -0.19 -0.02    -0.249 OA 
DOCKED: BRANCH  22  24
DOCKED: ATOM     24  OXT UNL     1      21.396  33.095   7.774 -0.37 -0.32    -0.479 OA 
DOCKED: ATOM     25  HXT UNL     1      20.807  33.824   8.067 +0.07 +0.17    +0.295 HD 
DOCKED: ENDBRANCH  22  24
DOCKED: ENDBRANCH  10  22
DOCKED: TORSDOF 5
DOCKED: TER
DOCKED: ENDMDL
________________________________________________________________________________


    FINAL DOCKED STATE:
    ________________________


Run:   16 / 50
Time taken for this run:   0.000s

DOCKED: MODEL        16
DOCKED: USER    Run = 16
DOCKED: USER
DOCKED: USER    Estimated Free Energy of Binding    =  -3.48 kcal/mol  [=(1)+(2)+(3)-(4)]
DOCKED: USER
DOCKED: USER    (1) Final Intermolecular Energy     =  -4.97 kcal/mol
DOCKED: USER        vdW + Hbond + desolv Energy     =  -4.77 kcal/mol
DOCKED: USER        Electrostatic Energy            =  -0.20 kcal/mol
DOCKED: USER        Moving Ligand-Fixed Receptor    =  -4.97 kcal/mol
DOCKED: USER        Moving Ligand-Moving Receptor   =  +0.00 kcal/mol
DOCKED: USER    (2) Final Total Internal Energy     =  -1.77 kcal/mol
DOCKED: USER    (3) Torsional Free Energy           =  +1.49 kcal/mol
DOCKED: USER    (4) Unbound System's Energy         =  -1.77 kcal/mol
DOCKED: USER
DOCKED: USER
DOCKED: REMARK  Name = 
DOCKED: REMARK  7 active torsions:
DOCKED: REMARK  status: ('A' for Active; 'I' for Inactive)
DOCKED: REMARK    1  A    between atoms: C_1  and  C_2
DOCKED: REMARK    2  A    between atoms: C_2  and  C_3
DOCKED: REMARK    3  A    between atoms: CA_6  and  N_7
DOCKED: REMARK    4  A    between atoms: C_8  and  C_10
DOCKED: REMARK    5  A    between atoms: C_10  and  C_11
DOCKED: REMARK    6  A    between atoms: CA_20  and  C_21
DOCKED: REMARK    7  A    between atoms: C_21  and  OXT_23
DOCKED: REMARK                            x       y       z     vdW  Elec       q    Type
DOCKED: REMARK                         _______ _______ _______ _____ _____    ______ ____
DOCKED: USER                              x       y       z     vdW  Elec       q    Type
DOCKED: USER                           _______ _______ _______ _____ _____    ______ ____
DOCKED: ROOT
DOCKED: ATOM      1  C   UNL     1      14.655  23.576  17.520 -0.23 -0.00    +0.025 C  
DOCKED: ATOM      2  C   UNL     1      13.833  24.409  18.506 -0.13 -0.00    +0.042 C  
DOCKED: ATOM      3  C   UNL     1      14.511  24.441  19.881 -0.04 -0.00    +0.025 C  
DOCKED: ATOM      4  S   UNL     1      12.164  23.605  18.718 -0.11 +0.02    -0.127 S  
DOCKED: ATOM      5  C   UNL     1      11.407  25.190  19.255 -0.05 -0.04    +0.165 C  
DOCKED: ATOM      6  CA  UNL     1      10.160  25.716  18.507 -0.12 -0.11    +0.190 C  
DOCKED: ATOM      7  C   UNL     1      11.177  26.600  17.750 -0.17 -0.07    +0.240 C  
DOCKED: ATOM      8  O   UNL     1      11.215  27.292  16.761 -0.61 -0.04    -0.273 OA 
DOCKED: ATOM      9  N   UNL     1      12.211  26.221  18.557 -0.08 +0.03    -0.271 N  
DOCKED: ATOM     10  CA  UNL     1      13.467  25.786  17.929 -0.13 +0.02    +0.201 C  
DOCKED: ENDROOT
DOCKED: BRANCH   6  11
DOCKED: ATOM     11  N   UNL     1       9.376  24.741  17.709 -0.11 +0.17    -0.301 N  
DOCKED: ATOM     12  C   UNL     1       9.876  24.260  16.518 -0.22 -0.06    +0.218 C  
DOCKED: ATOM     13  O   UNL     1      10.974  24.606  16.087 -0.25 -0.03    -0.275 OA 
DOCKED: ATOM     14  H   UNL     1       8.475  24.407  18.035 +0.03 -0.09    +0.150 HD 
DOCKED: BRANCH  12  15
DOCKED: ATOM     15  C   UNL     1       8.976  23.286  15.786 -0.31 -0.04    +0.130 C  
DOCKED: BRANCH  15  16
DOCKED: ATOM     16  C   UNL     1       9.455  21.855  15.846 -0.27 +0.01    -0.039 A  
DOCKED: ATOM     17  C   UNL     1       8.553  20.794  15.691 -0.33 -0.00    +0.004 A  
DOCKED: ATOM     18  C   UNL     1       9.008  19.473  15.683 -0.36 -0.00    +0.000 A  
DOCKED: ATOM     19  C   UNL     1      10.366  19.199  15.830 -0.43 -0.00    +0.000 A  
DOCKED: ATOM     20  C   UNL     1      11.270  20.246  15.994 -0.38 -0.00    +0.000 A  
DOCKED: ATOM     21  C   UNL     1      10.820  21.567  16.002 -0.31 -0.00    +0.004 A  
DOCKED: ENDBRANCH  15  16
DOCKED: ENDBRANCH  12  15
DOCKED: ENDBRANCH   6  11
DOCKED: BRANCH  10  22
DOCKED: ATOM     22  C   UNL     1      14.547  26.866  18.023 -0.09 +0.03    +0.327 C  
DOCKED: ATOM     23  O   UNL     1      15.741  26.639  18.150 -0.07 -0.00    -0.249 OA 
DOCKED: BRANCH  22  24
DOCKED: ATOM     24  OXT UNL     1      14.084  28.121  17.804 -0.06 -0.09    -0.479 OA 
DOCKED: ATOM     25  HXT UNL     1      13.138  28.135  17.540 +0.06 +0.11    +0.295 HD 
DOCKED: ENDBRANCH  22  24
DOCKED: ENDBRANCH  10  22
DOCKED: TORSDOF 5
DOCKED: TER
DOCKED: ENDMDL
________________________________________________________________________________


    FINAL DOCKED STATE:
    ________________________


Run:   17 / 50
Time taken for this run:   0.000s

DOCKED: MODEL        17
DOCKED: USER    Run = 17
DOCKED: USER
DOCKED: USER    Estimated Free Energy of Binding    =  -3.65 kcal/mol  [=(1)+(2)+(3)-(4)]
DOCKED: USER
DOCKED: USER    (1) Final Intermolecular Energy     =  -5.14 kcal/mol
DOCKED: USER        vdW + Hbond + desolv Energy     =  -5.18 kcal/mol
DOCKED: USER        Electrostatic Energy            =  +0.03 kcal/mol
DOCKED: USER        Moving Ligand-Fixed Receptor    =  -5.14 kcal/mol
DOCKED: USER        Moving Ligand-Moving Receptor   =  +0.00 kcal/mol
DOCKED: USER    (2) Final Total Internal Energy     =  -1.72 kcal/mol
DOCKED: USER    (3) Torsional Free Energy           =  +1.49 kcal/mol
DOCKED: USER    (4) Unbound System's Energy         =  -1.72 kcal/mol
DOCKED: USER
DOCKED: USER
DOCKED: REMARK  Name = 
DOCKED: REMARK  7 active torsions:
DOCKED: REMARK  status: ('A' for Active; 'I' for Inactive)
DOCKED: REMARK    1  A    between atoms: C_1  and  C_2
DOCKED: REMARK    2  A    between atoms: C_2  and  C_3
DOCKED: REMARK    3  A    between atoms: CA_6  and  N_7
DOCKED: REMARK    4  A    between atoms: C_8  and  C_10
DOCKED: REMARK    5  A    between atoms: C_10  and  C_11
DOCKED: REMARK    6  A    between atoms: CA_20  and  C_21
DOCKED: REMARK    7  A    between atoms: C_21  and  OXT_23
DOCKED: REMARK                            x       y       z     vdW  Elec       q    Type
DOCKED: REMARK                         _______ _______ _______ _____ _____    ______ ____
DOCKED: USER                              x       y       z     vdW  Elec       q    Type
DOCKED: USER                           _______ _______ _______ _____ _____    ______ ____
DOCKED: ROOT
DOCKED: ATOM      1  C   UNL     1      10.433  19.247  17.776 -0.21 -0.00    +0.025 C  
DOCKED: ATOM      2  C   UNL     1      10.323  20.145  16.542 -0.34 -0.01    +0.042 C  
DOCKED: ATOM      3  C   UNL     1      10.348  19.304  15.260 -0.46 -0.00    +0.025 C  
DOCKED: ATOM      4  S   UNL     1      11.800  21.282  16.500 -0.39 +0.01    -0.127 S  
DOCKED: ATOM      5  C   UNL     1      10.899  22.504  15.465 -0.19 +0.00    +0.165 C  
DOCKED: ATOM      6  CA  UNL     1      10.800  23.969  15.951 -0.28 +0.00    +0.190 C  
DOCKED: ATOM      7  C   UNL     1       9.401  23.546  16.454 -0.22 -0.07    +0.240 C  
DOCKED: ATOM      8  O   UNL     1       8.535  23.966  17.185 -0.16 +0.14    -0.273 OA 
DOCKED: ATOM      9  N   UNL     1       9.480  22.321  15.856 -0.20 +0.05    -0.271 N  
DOCKED: ATOM     10  CA  UNL     1       9.148  21.130  16.651 -0.19 -0.04    +0.201 C  
DOCKED: ENDROOT
DOCKED: BRANCH   6  11
DOCKED: ATOM     11  N   UNL     1      11.781  24.422  16.968 -0.12 -0.02    -0.301 N  
DOCKED: ATOM     12  C   UNL     1      11.881  25.760  17.286 -0.09 +0.03    +0.218 C  
DOCKED: ATOM     13  O   UNL     1      11.167  26.609  16.757 -0.59 -0.05    -0.275 OA 
DOCKED: ATOM     14  H   UNL     1      12.377  23.756  17.449 +0.05 -0.00    +0.150 HD 
DOCKED: BRANCH  12  15
DOCKED: ATOM     15  C   UNL     1      12.932  26.100  18.323 -0.13 -0.00    +0.130 C  
DOCKED: BRANCH  15  16
DOCKED: ATOM     16  C   UNL     1      14.324  25.653  17.945 -0.14 -0.00    -0.039 A  
DOCKED: ATOM     17  C   UNL     1      14.717  24.320  18.126 -0.16 -0.00    +0.004 A  
DOCKED: ATOM     18  C   UNL     1      15.983  23.893  17.718 -0.26 -0.00    +0.000 A  
DOCKED: ATOM     19  C   UNL     1      16.867  24.792  17.123 -0.28 -0.00    +0.000 A  
DOCKED: ATOM     20  C   UNL     1      16.490  26.121  16.947 -0.24 +0.00    +0.000 A  
DOCKED: ATOM     21  C   UNL     1      15.226  26.551  17.354 -0.17 +0.00    +0.004 A  
DOCKED: ENDBRANCH  15  16
DOCKED: ENDBRANCH  12  15
DOCKED: ENDBRANCH   6  11
DOCKED: BRANCH  10  22
DOCKED: ATOM     22  C   UNL     1       7.768  20.577  16.287 -0.16 -0.06    +0.327 C  
DOCKED: ATOM     23  O   UNL     1       7.500  19.388  16.203 -0.21 +0.03    -0.249 OA 
DOCKED: BRANCH  22  24
DOCKED: ATOM     24  OXT UNL     1       6.804  21.528  16.206 -0.10 +0.14    -0.479 OA 
DOCKED: ATOM     25  HXT UNL     1       7.125  22.416  16.472 +0.10 -0.11    +0.295 HD 
DOCKED: ENDBRANCH  22  24
DOCKED: ENDBRANCH  10  22
DOCKED: TORSDOF 5
DOCKED: TER
DOCKED: ENDMDL
________________________________________________________________________________


    FINAL DOCKED STATE:
    ________________________


Run:   18 / 50
Time taken for this run:   0.000s

DOCKED: MODEL        18
DOCKED: USER    Run = 18
DOCKED: USER
DOCKED: USER    Estimated Free Energy of Binding    =  -4.27 kcal/mol  [=(1)+(2)+(3)-(4)]
DOCKED: USER
DOCKED: USER    (1) Final Intermolecular Energy     =  -5.76 kcal/mol
DOCKED: USER        vdW + Hbond + desolv Energy     =  -5.05 kcal/mol
DOCKED: USER        Electrostatic Energy            =  -0.71 kcal/mol
DOCKED: USER        Moving Ligand-Fixed Receptor    =  -5.76 kcal/mol
DOCKED: USER        Moving Ligand-Moving Receptor   =  +0.00 kcal/mol
DOCKED: USER    (2) Final Total Internal Energy     =  -1.91 kcal/mol
DOCKED: USER    (3) Torsional Free Energy           =  +1.49 kcal/mol
DOCKED: USER    (4) Unbound System's Energy         =  -1.91 kcal/mol
DOCKED: USER
DOCKED: USER
DOCKED: REMARK  Name = 
DOCKED: REMARK  7 active torsions:
DOCKED: REMARK  status: ('A' for Active; 'I' for Inactive)
DOCKED: REMARK    1  A    between atoms: C_1  and  C_2
DOCKED: REMARK    2  A    between atoms: C_2  and  C_3
DOCKED: REMARK    3  A    between atoms: CA_6  and  N_7
DOCKED: REMARK    4  A    between atoms: C_8  and  C_10
DOCKED: REMARK    5  A    between atoms: C_10  and  C_11
DOCKED: REMARK    6  A    between atoms: CA_20  and  C_21
DOCKED: REMARK    7  A    between atoms: C_21  and  OXT_23
DOCKED: REMARK                            x       y       z     vdW  Elec       q    Type
DOCKED: REMARK                         _______ _______ _______ _____ _____    ______ ____
DOCKED: USER                              x       y       z     vdW  Elec       q    Type
DOCKED: USER                           _______ _______ _______ _____ _____    ______ ____
DOCKED: ROOT
DOCKED: ATOM      1  C   UNL     1       9.111  31.151  17.948 -0.15 -0.02    +0.025 C  
DOCKED: ATOM      2  C   UNL     1       7.644  31.492  18.218 -0.18 -0.03    +0.042 C  
DOCKED: ATOM      3  C   UNL     1       7.530  32.833  18.953 -0.14 -0.01    +0.025 C  
DOCKED: ATOM      4  S   UNL     1       6.921  30.178  19.324 -0.15 +0.13    -0.127 S  
DOCKED: ATOM      5  C   UNL     1       5.217  30.554  18.749 -0.19 -0.18    +0.165 C  
DOCKED: ATOM      6  CA  UNL     1       4.350  29.409  18.176 -0.20 -0.22    +0.190 C  
DOCKED: ATOM      7  C   UNL     1       4.803  29.959  16.805 -0.27 -0.24    +0.240 C  
DOCKED: ATOM      8  O   UNL     1       4.803  29.616  15.646 -0.67 +0.15    -0.273 OA 
DOCKED: ATOM      9  N   UNL     1       5.411  31.046  17.364 -0.21 +0.24    -0.271 N  
DOCKED: ATOM     10  CA  UNL     1       6.783  31.371  16.950 -0.27 -0.15    +0.201 C  
DOCKED: ENDROOT
DOCKED: BRANCH   6  11
DOCKED: ATOM     11  N   UNL     1       4.739  28.018  18.515 -0.04 +0.38    -0.301 N  
DOCKED: ATOM     12  C   UNL     1       4.182  27.389  19.608 -0.05 -0.17    +0.218 C  
DOCKED: ATOM     13  O   UNL     1       3.350  27.943  20.322 -0.02 +0.18    -0.275 OA 
DOCKED: ATOM     14  H   UNL     1       5.406  27.510  17.942 -0.42 -0.34    +0.150 HD 
DOCKED: BRANCH  12  15
DOCKED: ATOM     15  C   UNL     1       4.674  25.978  19.861 -0.04 -0.08    +0.130 C  
DOCKED: BRANCH  15  16
DOCKED: ATOM     16  C   UNL     1       6.047  25.704  19.296 -0.08 +0.03    -0.039 A  
DOCKED: ATOM     17  C   UNL     1       7.182  26.297  19.865 -0.09 -0.00    +0.004 A  
DOCKED: ATOM     18  C   UNL     1       8.458  25.993  19.382 -0.11 -0.00    +0.000 A  
DOCKED: ATOM     19  C   UNL     1       8.611  25.094  18.327 -0.13 -0.00    +0.000 A  
DOCKED: ATOM     20  C   UNL     1       7.489  24.506  17.749 -0.16 -0.00    +0.000 A  
DOCKED: ATOM     21  C   UNL     1       6.213  24.808  18.229 -0.13 -0.00    +0.004 A  
DOCKED: ENDBRANCH  15  16
DOCKED: ENDBRANCH  12  15
DOCKED: ENDBRANCH   6  11
DOCKED: BRANCH  10  22
DOCKED: ATOM     22  C   UNL     1       6.815  32.567  15.995 -0.25 +0.07    +0.327 C  
DOCKED: ATOM     23  O   UNL     1       7.616  33.487  16.068 -0.34 -0.17    -0.249 OA 
DOCKED: BRANCH  22  24
DOCKED: ATOM     24  OXT UNL     1       5.960  32.452  14.949 -0.62 -0.17    -0.479 OA 
DOCKED: ATOM     25  HXT UNL     1       5.545  31.564  14.896 -0.15 -0.11    +0.295 HD 
DOCKED: ENDBRANCH  22  24
DOCKED: ENDBRANCH  10  22
DOCKED: TORSDOF 5
DOCKED: TER
DOCKED: ENDMDL
________________________________________________________________________________


    FINAL DOCKED STATE:
    ________________________


Run:   19 / 50
Time taken for this run:   0.000s

DOCKED: MODEL        19
DOCKED: USER    Run = 19
DOCKED: USER
DOCKED: USER    Estimated Free Energy of Binding    =  -4.64 kcal/mol  [=(1)+(2)+(3)-(4)]
DOCKED: USER
DOCKED: USER    (1) Final Intermolecular Energy     =  -6.13 kcal/mol
DOCKED: USER        vdW + Hbond + desolv Energy     =  -5.53 kcal/mol
DOCKED: USER        Electrostatic Energy            =  -0.60 kcal/mol
DOCKED: USER        Moving Ligand-Fixed Receptor    =  -6.13 kcal/mol
DOCKED: USER        Moving Ligand-Moving Receptor   =  +0.00 kcal/mol
DOCKED: USER    (2) Final Total Internal Energy     =  -1.25 kcal/mol
DOCKED: USER    (3) Torsional Free Energy           =  +1.49 kcal/mol
DOCKED: USER    (4) Unbound System's Energy         =  -1.25 kcal/mol
DOCKED: USER
DOCKED: USER
DOCKED: REMARK  Name = 
DOCKED: REMARK  7 active torsions:
DOCKED: REMARK  status: ('A' for Active; 'I' for Inactive)
DOCKED: REMARK    1  A    between atoms: C_1  and  C_2
DOCKED: REMARK    2  A    between atoms: C_2  and  C_3
DOCKED: REMARK    3  A    between atoms: CA_6  and  N_7
DOCKED: REMARK    4  A    between atoms: C_8  and  C_10
DOCKED: REMARK    5  A    between atoms: C_10  and  C_11
DOCKED: REMARK    6  A    between atoms: CA_20  and  C_21
DOCKED: REMARK    7  A    between atoms: C_21  and  OXT_23
DOCKED: REMARK                            x       y       z     vdW  Elec       q    Type
DOCKED: REMARK                         _______ _______ _______ _____ _____    ______ ____
DOCKED: USER                              x       y       z     vdW  Elec       q    Type
DOCKED: USER                           _______ _______ _______ _____ _____    ______ ____
DOCKED: ROOT
DOCKED: ATOM      1  C   UNL     1       8.628  31.428  17.602 -0.20 -0.02    +0.025 C  
DOCKED: ATOM      2  C   UNL     1       7.121  31.626  17.780 -0.24 -0.03    +0.042 C  
DOCKED: ATOM      3  C   UNL     1       6.819  33.042  18.284 -0.22 -0.01    +0.025 C  
DOCKED: ATOM      4  S   UNL     1       6.511  30.425  19.068 -0.18 +0.13    -0.127 S  
DOCKED: ATOM      5  C   UNL     1       4.800  30.493  18.401 -0.22 -0.19    +0.165 C  
DOCKED: ATOM      6  CA  UNL     1       4.099  29.173  18.003 -0.20 -0.21    +0.190 C  
DOCKED: ATOM      7  C   UNL     1       4.541  29.551  16.571 -0.20 -0.24    +0.240 C  
DOCKED: ATOM      8  O   UNL     1       4.631  29.030  15.483 -0.70 +0.21    -0.273 OA 
DOCKED: ATOM      9  N   UNL     1       4.994  30.779  16.959 -0.26 +0.23    -0.271 N  
DOCKED: ATOM     10  CA  UNL     1       6.334  31.200  16.529 -0.33 -0.14    +0.201 C  
DOCKED: ENDROOT
DOCKED: BRANCH   6  11
DOCKED: ATOM     11  N   UNL     1       4.635  27.912  18.572 -0.05 +0.36    -0.301 N  
DOCKED: ATOM     12  C   UNL     1       4.203  27.470  19.804 -0.05 -0.16    +0.218 C  
DOCKED: ATOM     13  O   UNL     1       3.366  28.087  20.460 -0.02 +0.19    -0.275 OA 
DOCKED: ATOM     14  H   UNL     1       5.310  27.356  18.058 -0.39 -0.30    +0.150 HD 
DOCKED: BRANCH  12  15
DOCKED: ATOM     15  C   UNL     1       4.837  26.181  20.286 -0.04 -0.08    +0.130 C  
DOCKED: BRANCH  15  16
DOCKED: ATOM     16  C   UNL     1       5.666  25.483  19.234 -0.08 +0.03    -0.039 A  
DOCKED: ATOM     17  C   UNL     1       5.051  24.855  18.143 -0.11 -0.00    +0.004 A  
DOCKED: ATOM     18  C   UNL     1       5.821  24.265  17.138 -0.20 -0.00    +0.000 A  
DOCKED: ATOM     19  C   UNL     1       7.212  24.298  17.212 -0.18 -0.00    +0.000 A  
DOCKED: ATOM     20  C   UNL     1       7.834  24.911  18.297 -0.13 -0.00    +0.000 A  
DOCKED: ATOM     21  C   UNL     1       7.067  25.501  19.303 -0.10 -0.00    +0.004 A  
DOCKED: ENDBRANCH  15  16
DOCKED: ENDBRANCH  12  15
DOCKED: ENDBRANCH   6  11
DOCKED: BRANCH  10  22
DOCKED: ATOM     22  C   UNL     1       6.266  32.224  15.393 -0.22 +0.04    +0.327 C  
DOCKED: ATOM     23  O   UNL     1       7.045  32.265  14.453 -0.57 -0.14    -0.249 OA 
DOCKED: BRANCH  22  24
DOCKED: ATOM     24  OXT UNL     1       5.162  33.010  15.435 -0.50 -0.15    -0.479 OA 
DOCKED: ATOM     25  HXT UNL     1       4.427  32.660  14.886 -0.17 -0.12    +0.295 HD 
DOCKED: ENDBRANCH  22  24
DOCKED: ENDBRANCH  10  22
DOCKED: TORSDOF 5
DOCKED: TER
DOCKED: ENDMDL
________________________________________________________________________________


    FINAL DOCKED STATE:
    ________________________


Run:   20 / 50
Time taken for this run:   0.000s

DOCKED: MODEL        20
DOCKED: USER    Run = 20
DOCKED: USER
DOCKED: USER    Estimated Free Energy of Binding    =  -3.79 kcal/mol  [=(1)+(2)+(3)-(4)]
DOCKED: USER
DOCKED: USER    (1) Final Intermolecular Energy     =  -5.28 kcal/mol
DOCKED: USER        vdW + Hbond + desolv Energy     =  -4.88 kcal/mol
DOCKED: USER        Electrostatic Energy            =  -0.40 kcal/mol
DOCKED: USER        Moving Ligand-Fixed Receptor    =  -5.28 kcal/mol
DOCKED: USER        Moving Ligand-Moving Receptor   =  +0.00 kcal/mol
DOCKED: USER    (2) Final Total Internal Energy     =  -1.62 kcal/mol
DOCKED: USER    (3) Torsional Free Energy           =  +1.49 kcal/mol
DOCKED: USER    (4) Unbound System's Energy         =  -1.62 kcal/mol
DOCKED: USER
DOCKED: USER
DOCKED: REMARK  Name = 
DOCKED: REMARK  7 active torsions:
DOCKED: REMARK  status: ('A' for Active; 'I' for Inactive)
DOCKED: REMARK    1  A    between atoms: C_1  and  C_2
DOCKED: REMARK    2  A    between atoms: C_2  and  C_3
DOCKED: REMARK    3  A    between atoms: CA_6  and  N_7
DOCKED: REMARK    4  A    between atoms: C_8  and  C_10
DOCKED: REMARK    5  A    between atoms: C_10  and  C_11
DOCKED: REMARK    6  A    between atoms: CA_20  and  C_21
DOCKED: REMARK    7  A    between atoms: C_21  and  OXT_23
DOCKED: REMARK                            x       y       z     vdW  Elec       q    Type
DOCKED: REMARK                         _______ _______ _______ _____ _____    ______ ____
DOCKED: USER                              x       y       z     vdW  Elec       q    Type
DOCKED: USER                           _______ _______ _______ _____ _____    ______ ____
DOCKED: ROOT
DOCKED: ATOM      1  C   UNL     1      19.082  29.551  10.028 -0.49 -0.01    +0.025 C  
DOCKED: ATOM      2  C   UNL     1      19.676  30.768  10.740 -0.33 -0.02    +0.042 C  
DOCKED: ATOM      3  C   UNL     1      21.086  30.456  11.256 -0.23 -0.01    +0.025 C  
DOCKED: ATOM      4  S   UNL     1      18.612  31.174  12.215 -0.22 +0.12    -0.127 S  
DOCKED: ATOM      5  C   UNL     1      19.191  32.918  12.223 -0.07 -0.09    +0.165 C  
DOCKED: ATOM      6  CA  UNL     1      18.144  34.055  12.171 -0.06 -0.12    +0.190 C  
DOCKED: ATOM      7  C   UNL     1      18.474  34.081  10.662 -0.07 -0.12    +0.240 C  
DOCKED: ATOM      8  O   UNL     1      18.019  34.545   9.643 -0.08 +0.09    -0.273 OA 
DOCKED: ATOM      9  N   UNL     1      19.502  33.193  10.800 -0.05 +0.10    -0.271 N  
DOCKED: ATOM     10  CA  UNL     1      19.563  32.044   9.887 -0.19 -0.05    +0.201 C  
DOCKED: ENDROOT
DOCKED: BRANCH   6  11
DOCKED: ATOM     11  N   UNL     1      16.751  33.724  12.560 +0.00 +0.34    -0.301 N  
DOCKED: ATOM     12  C   UNL     1      15.908  34.711  13.025 -0.08 -0.13    +0.218 C  
DOCKED: ATOM     13  O   UNL     1      16.270  35.881  13.123 -0.02 +0.10    -0.275 OA 
DOCKED: ATOM     14  H   UNL     1      16.399  32.776  12.475 -0.39 -0.34    +0.150 HD 
DOCKED: BRANCH  12  15
DOCKED: ATOM     15  C   UNL     1      14.518  34.245  13.408 -0.16 -0.07    +0.130 C  
DOCKED: BRANCH  15  16
DOCKED: ATOM     16  C   UNL     1      13.472  34.538  12.359 -0.19 +0.02    -0.039 A  
DOCKED: ATOM     17  C   UNL     1      12.356  35.328  12.667 -0.15 -0.00    +0.004 A  
DOCKED: ATOM     18  C   UNL     1      11.422  35.651  11.680 -0.29 -0.00    +0.000 A  
DOCKED: ATOM     19  C   UNL     1      11.594  35.190  10.376 -0.30 -0.00    +0.000 A  
DOCKED: ATOM     20  C   UNL     1      12.694  34.396  10.061 -0.35 -0.00    +0.000 A  
DOCKED: ATOM     21  C   UNL     1      13.629  34.072  11.045 -0.26 -0.00    +0.004 A  
DOCKED: ENDBRANCH  15  16
DOCKED: ENDBRANCH  12  15
DOCKED: ENDBRANCH   6  11
DOCKED: BRANCH  10  22
DOCKED: ATOM     22  C   UNL     1      20.635  32.233   8.812 -0.15 +0.07    +0.327 C  
DOCKED: ATOM     23  O   UNL     1      21.466  31.390   8.508 -0.28 -0.04    -0.249 OA 
DOCKED: BRANCH  22  24
DOCKED: ATOM     24  OXT UNL     1      20.499  33.382   8.104 -0.52 -0.34    -0.479 OA 
DOCKED: ATOM     25  HXT UNL     1      19.795  33.965   8.461 +0.07 +0.10    +0.295 HD 
DOCKED: ENDBRANCH  22  24
DOCKED: ENDBRANCH  10  22
DOCKED: TORSDOF 5
DOCKED: TER
DOCKED: ENDMDL
________________________________________________________________________________


    FINAL DOCKED STATE:
    ________________________


Run:   21 / 50
Time taken for this run:   0.000s

DOCKED: MODEL        21
DOCKED: USER    Run = 21
DOCKED: USER
DOCKED: USER    Estimated Free Energy of Binding    =  -3.49 kcal/mol  [=(1)+(2)+(3)-(4)]
DOCKED: USER
DOCKED: USER    (1) Final Intermolecular Energy     =  -4.98 kcal/mol
DOCKED: USER        vdW + Hbond + desolv Energy     =  -4.79 kcal/mol
DOCKED: USER        Electrostatic Energy            =  -0.19 kcal/mol
DOCKED: USER        Moving Ligand-Fixed Receptor    =  -4.98 kcal/mol
DOCKED: USER        Moving Ligand-Moving Receptor   =  +0.00 kcal/mol
DOCKED: USER    (2) Final Total Internal Energy     =  -1.76 kcal/mol
DOCKED: USER    (3) Torsional Free Energy           =  +1.49 kcal/mol
DOCKED: USER    (4) Unbound System's Energy         =  -1.76 kcal/mol
DOCKED: USER
DOCKED: USER
DOCKED: REMARK  Name = 
DOCKED: REMARK  7 active torsions:
DOCKED: REMARK  status: ('A' for Active; 'I' for Inactive)
DOCKED: REMARK    1  A    between atoms: C_1  and  C_2
DOCKED: REMARK    2  A    between atoms: C_2  and  C_3
DOCKED: REMARK    3  A    between atoms: CA_6  and  N_7
DOCKED: REMARK    4  A    between atoms: C_8  and  C_10
DOCKED: REMARK    5  A    between atoms: C_10  and  C_11
DOCKED: REMARK    6  A    between atoms: CA_20  and  C_21
DOCKED: REMARK    7  A    between atoms: C_21  and  OXT_23
DOCKED: REMARK                            x       y       z     vdW  Elec       q    Type
DOCKED: REMARK                         _______ _______ _______ _____ _____    ______ ____
DOCKED: USER                              x       y       z     vdW  Elec       q    Type
DOCKED: USER                           _______ _______ _______ _____ _____    ______ ____
DOCKED: ROOT
DOCKED: ATOM      1  C   UNL     1      14.608  23.541  17.515 -0.23 -0.00    +0.025 C  
DOCKED: ATOM      2  C   UNL     1      13.823  24.406  18.504 -0.13 -0.00    +0.042 C  
DOCKED: ATOM      3  C   UNL     1      14.543  24.467  19.857 -0.04 -0.00    +0.025 C  
DOCKED: ATOM      4  S   UNL     1      12.156  23.622  18.788 -0.10 +0.02    -0.127 S  
DOCKED: ATOM      5  C   UNL     1      11.428  25.227  19.307 -0.05 -0.04    +0.165 C  
DOCKED: ATOM      6  CA  UNL     1      10.163  25.745  18.585 -0.12 -0.11    +0.190 C  
DOCKED: ATOM      7  C   UNL     1      11.163  26.600  17.775 -0.17 -0.08    +0.240 C  
DOCKED: ATOM      8  O   UNL     1      11.176  27.267  16.767 -0.63 -0.02    -0.273 OA 
DOCKED: ATOM      9  N   UNL     1      12.219  26.233  18.559 -0.08 +0.03    -0.271 N  
DOCKED: ATOM     10  CA  UNL     1      13.451  25.772  17.904 -0.13 +0.02    +0.201 C  
DOCKED: ENDROOT
DOCKED: BRANCH   6  11
DOCKED: ATOM     11  N   UNL     1       9.347  24.757  17.836 -0.11 +0.17    -0.301 N  
DOCKED: ATOM     12  C   UNL     1       9.814  24.229  16.651 -0.21 -0.06    +0.218 C  
DOCKED: ATOM     13  O   UNL     1      10.908  24.542  16.186 -0.25 -0.01    -0.275 OA 
DOCKED: ATOM     14  H   UNL     1       8.448  24.450  18.190 +0.03 -0.09    +0.150 HD 
DOCKED: BRANCH  12  15
DOCKED: ATOM     15  C   UNL     1       8.883  23.246  15.971 -0.31 -0.04    +0.130 C  
DOCKED: BRANCH  15  16
DOCKED: ATOM     16  C   UNL     1       9.413  21.832  15.940 -0.29 +0.01    -0.039 A  
DOCKED: ATOM     17  C   UNL     1       8.539  20.747  15.785 -0.32 -0.00    +0.004 A  
DOCKED: ATOM     18  C   UNL     1       9.036  19.445  15.694 -0.35 -0.00    +0.000 A  
DOCKED: ATOM     19  C   UNL     1      10.409  19.213  15.754 -0.44 -0.00    +0.000 A  
DOCKED: ATOM     20  C   UNL     1      11.286  20.283  15.917 -0.38 -0.00    +0.000 A  
DOCKED: ATOM     21  C   UNL     1      10.793  21.586  16.009 -0.31 -0.00    +0.004 A  
DOCKED: ENDBRANCH  15  16
DOCKED: ENDBRANCH  12  15
DOCKED: ENDBRANCH   6  11
DOCKED: BRANCH  10  22
DOCKED: ATOM     22  C   UNL     1      14.542  26.844  17.938 -0.09 +0.03    +0.327 C  
DOCKED: ATOM     23  O   UNL     1      15.737  26.610  18.045 -0.08 -0.00    -0.249 OA 
DOCKED: BRANCH  22  24
DOCKED: ATOM     24  OXT UNL     1      14.085  28.095  17.688 -0.05 -0.11    -0.479 OA 
DOCKED: ATOM     25  HXT UNL     1      13.121  28.116  17.501 +0.06 +0.11    +0.295 HD 
DOCKED: ENDBRANCH  22  24
DOCKED: ENDBRANCH  10  22
DOCKED: TORSDOF 5
DOCKED: TER
DOCKED: ENDMDL
________________________________________________________________________________


    FINAL DOCKED STATE:
    ________________________


Run:   22 / 50
Time taken for this run:   0.000s

DOCKED: MODEL        22
DOCKED: USER    Run = 22
DOCKED: USER
DOCKED: USER    Estimated Free Energy of Binding    =  -3.64 kcal/mol  [=(1)+(2)+(3)-(4)]
DOCKED: USER
DOCKED: USER    (1) Final Intermolecular Energy     =  -5.13 kcal/mol
DOCKED: USER        vdW + Hbond + desolv Energy     =  -5.23 kcal/mol
DOCKED: USER        Electrostatic Energy            =  +0.10 kcal/mol
DOCKED: USER        Moving Ligand-Fixed Receptor    =  -5.13 kcal/mol
DOCKED: USER        Moving Ligand-Moving Receptor   =  +0.00 kcal/mol
DOCKED: USER    (2) Final Total Internal Energy     =  -1.66 kcal/mol
DOCKED: USER    (3) Torsional Free Energy           =  +1.49 kcal/mol
DOCKED: USER    (4) Unbound System's Energy         =  -1.66 kcal/mol
DOCKED: USER
DOCKED: USER
DOCKED: REMARK  Name = 
DOCKED: REMARK  7 active torsions:
DOCKED: REMARK  status: ('A' for Active; 'I' for Inactive)
DOCKED: REMARK    1  A    between atoms: C_1  and  C_2
DOCKED: REMARK    2  A    between atoms: C_2  and  C_3
DOCKED: REMARK    3  A    between atoms: CA_6  and  N_7
DOCKED: REMARK    4  A    between atoms: C_8  and  C_10
DOCKED: REMARK    5  A    between atoms: C_10  and  C_11
DOCKED: REMARK    6  A    between atoms: CA_20  and  C_21
DOCKED: REMARK    7  A    between atoms: C_21  and  OXT_23
DOCKED: REMARK                            x       y       z     vdW  Elec       q    Type
DOCKED: REMARK                         _______ _______ _______ _____ _____    ______ ____
DOCKED: USER                              x       y       z     vdW  Elec       q    Type
DOCKED: USER                           _______ _______ _______ _____ _____    ______ ____
DOCKED: ROOT
DOCKED: ATOM      1  C   UNL     1      10.424  19.296  17.797 -0.21 -0.00    +0.025 C  
DOCKED: ATOM      2  C   UNL     1      10.390  20.143  16.523 -0.34 -0.01    +0.042 C  
DOCKED: ATOM      3  C   UNL     1      10.548  19.256  15.282 -0.49 -0.00    +0.025 C  
DOCKED: ATOM      4  S   UNL     1      11.828  21.328  16.556 -0.39 +0.01    -0.127 S  
DOCKED: ATOM      5  C   UNL     1      10.978  22.478  15.403 -0.16 +0.00    +0.165 C  
DOCKED: ATOM      6  CA  UNL     1      10.792  23.956  15.819 -0.27 +0.01    +0.190 C  
DOCKED: ATOM      7  C   UNL     1       9.370  23.503  16.221 -0.24 -0.06    +0.240 C  
DOCKED: ATOM      8  O   UNL     1       8.434  23.921  16.861 -0.19 +0.13    -0.273 OA 
DOCKED: ATOM      9  N   UNL     1       9.539  22.260  15.682 -0.21 +0.04    -0.271 N  
DOCKED: ATOM     10  CA  UNL     1       9.178  21.090  16.494 -0.21 -0.04    +0.201 C  
DOCKED: ENDROOT
DOCKED: BRANCH   6  11
DOCKED: ATOM     11  N   UNL     1      11.670  24.481  16.894 -0.13 -0.02    -0.301 N  
DOCKED: ATOM     12  C   UNL     1      11.608  25.811  17.252 -0.13 +0.02    +0.218 C  
DOCKED: ATOM     13  O   UNL     1      10.829  26.594  16.711 -0.61 +0.03    -0.275 OA 
DOCKED: ATOM     14  H   UNL     1      12.313  23.870  17.386 +0.04 +0.00    +0.150 HD 
DOCKED: BRANCH  12  15
DOCKED: ATOM     15  C   UNL     1      12.566  26.231  18.348 -0.14 -0.01    +0.130 C  
DOCKED: BRANCH  15  16
DOCKED: ATOM     16  C   UNL     1      14.020  26.090  17.968 -0.15 -0.00    -0.039 A  
DOCKED: ATOM     17  C   UNL     1      14.645  24.836  17.994 -0.15 +0.00    +0.004 A  
DOCKED: ATOM     18  C   UNL     1      15.972  24.697  17.582 -0.21 -0.00    +0.000 A  
DOCKED: ATOM     19  C   UNL     1      16.688  25.808  17.138 -0.23 +0.00    +0.000 A  
DOCKED: ATOM     20  C   UNL     1      16.080  27.060  17.117 -0.20 +0.00    +0.000 A  
DOCKED: ATOM     21  C   UNL     1      14.754  27.203  17.528 -0.16 +0.00    +0.004 A  
DOCKED: ENDBRANCH  15  16
DOCKED: ENDBRANCH  12  15
DOCKED: ENDBRANCH   6  11
DOCKED: BRANCH  10  22
DOCKED: ATOM     22  C   UNL     1       7.852  20.475  16.040 -0.16 -0.06    +0.327 C  
DOCKED: ATOM     23  O   UNL     1       7.600  19.280  16.065 -0.23 +0.02    -0.249 OA 
DOCKED: BRANCH  22  24
DOCKED: ATOM     24  OXT UNL     1       6.902  21.394  15.737 -0.13 +0.14    -0.479 OA 
DOCKED: ATOM     25  HXT UNL     1       7.212  22.316  15.868 +0.07 -0.12    +0.295 HD 
DOCKED: ENDBRANCH  22  24
DOCKED: ENDBRANCH  10  22
DOCKED: TORSDOF 5
DOCKED: TER
DOCKED: ENDMDL
________________________________________________________________________________


    FINAL DOCKED STATE:
    ________________________


Run:   23 / 50
Time taken for this run:   0.000s

DOCKED: MODEL        23
DOCKED: USER    Run = 23
DOCKED: USER
DOCKED: USER    Estimated Free Energy of Binding    =  -3.42 kcal/mol  [=(1)+(2)+(3)-(4)]
DOCKED: USER
DOCKED: USER    (1) Final Intermolecular Energy     =  -4.91 kcal/mol
DOCKED: USER        vdW + Hbond + desolv Energy     =  -4.99 kcal/mol
DOCKED: USER        Electrostatic Energy            =  +0.08 kcal/mol
DOCKED: USER        Moving Ligand-Fixed Receptor    =  -4.91 kcal/mol
DOCKED: USER        Moving Ligand-Moving Receptor   =  +0.00 kcal/mol
DOCKED: USER    (2) Final Total Internal Energy     =  -1.62 kcal/mol
DOCKED: USER    (3) Torsional Free Energy           =  +1.49 kcal/mol
DOCKED: USER    (4) Unbound System's Energy         =  -1.62 kcal/mol
DOCKED: USER
DOCKED: USER
DOCKED: REMARK  Name = 
DOCKED: REMARK  7 active torsions:
DOCKED: REMARK  status: ('A' for Active; 'I' for Inactive)
DOCKED: REMARK    1  A    between atoms: C_1  and  C_2
DOCKED: REMARK    2  A    between atoms: C_2  and  C_3
DOCKED: REMARK    3  A    between atoms: CA_6  and  N_7
DOCKED: REMARK    4  A    between atoms: C_8  and  C_10
DOCKED: REMARK    5  A    between atoms: C_10  and  C_11
DOCKED: REMARK    6  A    between atoms: CA_20  and  C_21
DOCKED: REMARK    7  A    between atoms: C_21  and  OXT_23
DOCKED: REMARK                            x       y       z     vdW  Elec       q    Type
DOCKED: REMARK                         _______ _______ _______ _____ _____    ______ ____
DOCKED: USER                              x       y       z     vdW  Elec       q    Type
DOCKED: USER                           _______ _______ _______ _____ _____    ______ ____
DOCKED: ROOT
DOCKED: ATOM      1  C   UNL     1       7.882  19.736  18.722 -0.08 -0.00    +0.025 C  
DOCKED: ATOM      2  C   UNL     1       8.377  19.923  17.287 -0.20 -0.01    +0.042 C  
DOCKED: ATOM      3  C   UNL     1       7.894  18.771  16.396 -0.28 -0.00    +0.025 C  
DOCKED: ATOM      4  S   UNL     1      10.240  19.891  17.290 -0.28 +0.02    -0.127 S  
DOCKED: ATOM      5  C   UNL     1      10.315  20.837  15.716 -0.19 -0.02    +0.165 C  
DOCKED: ATOM      6  CA  UNL     1      11.141  22.143  15.665 -0.25 -0.00    +0.190 C  
DOCKED: ATOM      7  C   UNL     1       9.774  22.834  15.874 -0.27 -0.04    +0.240 C  
DOCKED: ATOM      8  O   UNL     1       9.347  23.925  16.169 -0.24 +0.08    -0.273 OA 
DOCKED: ATOM      9  N   UNL     1       9.084  21.663  15.742 -0.21 +0.05    -0.271 N  
DOCKED: ATOM     10  CA  UNL     1       8.069  21.331  16.752 -0.18 -0.05    +0.201 C  
DOCKED: ENDROOT
DOCKED: BRANCH   6  11
DOCKED: ATOM     11  N   UNL     1      12.173  22.343  16.712 -0.15 +0.01    -0.301 N  
DOCKED: ATOM     12  C   UNL     1      13.397  21.717  16.607 -0.28 -0.02    +0.218 C  
DOCKED: ATOM     13  O   UNL     1      13.677  20.993  15.654 -0.34 +0.05    -0.275 OA 
DOCKED: ATOM     14  H   UNL     1      11.998  22.950  17.506 +0.06 -0.01    +0.150 HD 
DOCKED: BRANCH  12  15
DOCKED: ATOM     15  C   UNL     1      14.359  21.985  17.747 -0.30 -0.02    +0.130 C  
DOCKED: BRANCH  15  16
DOCKED: ATOM     16  C   UNL     1      15.126  23.277  17.602 -0.26 +0.00    -0.039 A  
DOCKED: ATOM     17  C   UNL     1      14.523  24.502  17.916 -0.16 +0.00    +0.004 A  
DOCKED: ATOM     18  C   UNL     1      15.253  25.691  17.842 -0.16 +0.00    +0.000 A  
DOCKED: ATOM     19  C   UNL     1      16.592  25.668  17.455 -0.19 +0.00    +0.000 A  
DOCKED: ATOM     20  C   UNL     1      17.199  24.457  17.131 -0.30 -0.00    +0.000 A  
DOCKED: ATOM     21  C   UNL     1      16.472  23.267  17.204 -0.26 -0.00    +0.004 A  
DOCKED: ENDBRANCH  15  16
DOCKED: ENDBRANCH  12  15
DOCKED: ENDBRANCH   6  11
DOCKED: BRANCH  10  22
DOCKED: ATOM     22  C   UNL     1       6.651  21.556  16.220 -0.16 -0.09    +0.327 C  
DOCKED: ATOM     23  O   UNL     1       5.714  20.795  16.409 -0.13 +0.05    -0.249 OA 
DOCKED: BRANCH  22  24
DOCKED: ATOM     24  OXT UNL     1       6.475  22.766  15.633 -0.13 +0.23    -0.479 OA 
DOCKED: ATOM     25  HXT UNL     1       7.322  23.238  15.478 -0.06 -0.15    +0.295 HD 
DOCKED: ENDBRANCH  22  24
DOCKED: ENDBRANCH  10  22
DOCKED: TORSDOF 5
DOCKED: TER
DOCKED: ENDMDL
________________________________________________________________________________


    FINAL DOCKED STATE:
    ________________________


Run:   24 / 50
Time taken for this run:   0.000s

DOCKED: MODEL        24
DOCKED: USER    Run = 24
DOCKED: USER
DOCKED: USER    Estimated Free Energy of Binding    =  -4.32 kcal/mol  [=(1)+(2)+(3)-(4)]
DOCKED: USER
DOCKED: USER    (1) Final Intermolecular Energy     =  -5.81 kcal/mol
DOCKED: USER        vdW + Hbond + desolv Energy     =  -5.06 kcal/mol
DOCKED: USER        Electrostatic Energy            =  -0.76 kcal/mol
DOCKED: USER        Moving Ligand-Fixed Receptor    =  -5.81 kcal/mol
DOCKED: USER        Moving Ligand-Moving Receptor   =  +0.00 kcal/mol
DOCKED: USER    (2) Final Total Internal Energy     =  -1.90 kcal/mol
DOCKED: USER    (3) Torsional Free Energy           =  +1.49 kcal/mol
DOCKED: USER    (4) Unbound System's Energy         =  -1.90 kcal/mol
DOCKED: USER
DOCKED: USER
DOCKED: REMARK  Name = 
DOCKED: REMARK  7 active torsions:
DOCKED: REMARK  status: ('A' for Active; 'I' for Inactive)
DOCKED: REMARK    1  A    between atoms: C_1  and  C_2
DOCKED: REMARK    2  A    between atoms: C_2  and  C_3
DOCKED: REMARK    3  A    between atoms: CA_6  and  N_7
DOCKED: REMARK    4  A    between atoms: C_8  and  C_10
DOCKED: REMARK    5  A    between atoms: C_10  and  C_11
DOCKED: REMARK    6  A    between atoms: CA_20  and  C_21
DOCKED: REMARK    7  A    between atoms: C_21  and  OXT_23
DOCKED: REMARK                            x       y       z     vdW  Elec       q    Type
DOCKED: REMARK                         _______ _______ _______ _____ _____    ______ ____
DOCKED: USER                              x       y       z     vdW  Elec       q    Type
DOCKED: USER                           _______ _______ _______ _____ _____    ______ ____
DOCKED: ROOT
DOCKED: ATOM      1  C   UNL     1       9.046  31.180  18.091 -0.15 -0.02    +0.025 C  
DOCKED: ATOM      2  C   UNL     1       7.566  31.484  18.331 -0.17 -0.03    +0.042 C  
DOCKED: ATOM      3  C   UNL     1       7.404  32.803  19.096 -0.14 -0.01    +0.025 C  
DOCKED: ATOM      4  S   UNL     1       6.842  30.128  19.385 -0.15 +0.13    -0.127 S  
DOCKED: ATOM      5  C   UNL     1       5.146  30.482  18.775 -0.19 -0.18    +0.165 C  
DOCKED: ATOM      6  CA  UNL     1       4.319  29.334  18.151 -0.19 -0.21    +0.190 C  
DOCKED: ATOM      7  C   UNL     1       4.795  29.929  16.806 -0.26 -0.25    +0.240 C  
DOCKED: ATOM      8  O   UNL     1       4.832  29.614  15.639 -0.66 +0.15    -0.273 OA 
DOCKED: ATOM      9  N   UNL     1       5.366  31.013  17.408 -0.21 +0.25    -0.271 N  
DOCKED: ATOM     10  CA  UNL     1       6.740  31.377  17.038 -0.26 -0.15    +0.201 C  
DOCKED: ENDROOT
DOCKED: BRANCH   6  11
DOCKED: ATOM     11  N   UNL     1       4.729  27.943  18.465 -0.04 +0.38    -0.301 N  
DOCKED: ATOM     12  C   UNL     1       4.191  27.292  19.554 -0.05 -0.17    +0.218 C  
DOCKED: ATOM     13  O   UNL     1       3.358  27.825  20.285 -0.02 +0.18    -0.275 OA 
DOCKED: ATOM     14  H   UNL     1       5.396  27.453  17.879 -0.42 -0.35    +0.150 HD 
DOCKED: BRANCH  12  15
DOCKED: ATOM     15  C   UNL     1       4.702  25.883  19.782 -0.05 -0.08    +0.130 C  
DOCKED: BRANCH  15  16
DOCKED: ATOM     16  C   UNL     1       6.162  25.706  19.438 -0.08 +0.03    -0.039 A  
DOCKED: ATOM     17  C   UNL     1       6.558  24.766  18.477 -0.12 -0.00    +0.004 A  
DOCKED: ATOM     18  C   UNL     1       7.901  24.647  18.113 -0.15 -0.00    +0.000 A  
DOCKED: ATOM     19  C   UNL     1       8.862  25.467  18.704 -0.12 -0.00    +0.000 A  
DOCKED: ATOM     20  C   UNL     1       8.480  26.398  19.666 -0.10 -0.00    +0.000 A  
DOCKED: ATOM     21  C   UNL     1       7.139  26.519  20.032 -0.08 -0.00    +0.004 A  
DOCKED: ENDBRANCH  15  16
DOCKED: ENDBRANCH  12  15
DOCKED: ENDBRANCH   6  11
DOCKED: BRANCH  10  22
DOCKED: ATOM     22  C   UNL     1       6.772  32.596  16.114 -0.25 +0.06    +0.327 C  
DOCKED: ATOM     23  O   UNL     1       7.357  33.639  16.367 -0.36 -0.19    -0.249 OA 
DOCKED: BRANCH  22  24
DOCKED: ATOM     24  OXT UNL     1       6.208  32.376  14.901 -0.67 -0.19    -0.479 OA 
DOCKED: ATOM     25  HXT UNL     1       5.719  31.525  14.860 -0.16 -0.10    +0.295 HD 
DOCKED: ENDBRANCH  22  24
DOCKED: ENDBRANCH  10  22
DOCKED: TORSDOF 5
DOCKED: TER
DOCKED: ENDMDL
________________________________________________________________________________


    FINAL DOCKED STATE:
    ________________________


Run:   25 / 50
Time taken for this run:   0.000s

DOCKED: MODEL        25
DOCKED: USER    Run = 25
DOCKED: USER
DOCKED: USER    Estimated Free Energy of Binding    =  -3.65 kcal/mol  [=(1)+(2)+(3)-(4)]
DOCKED: USER
DOCKED: USER    (1) Final Intermolecular Energy     =  -5.14 kcal/mol
DOCKED: USER        vdW + Hbond + desolv Energy     =  -5.18 kcal/mol
DOCKED: USER        Electrostatic Energy            =  +0.04 kcal/mol
DOCKED: USER        Moving Ligand-Fixed Receptor    =  -5.14 kcal/mol
DOCKED: USER        Moving Ligand-Moving Receptor   =  +0.00 kcal/mol
DOCKED: USER    (2) Final Total Internal Energy     =  -1.71 kcal/mol
DOCKED: USER    (3) Torsional Free Energy           =  +1.49 kcal/mol
DOCKED: USER    (4) Unbound System's Energy         =  -1.71 kcal/mol
DOCKED: USER
DOCKED: USER
DOCKED: REMARK  Name = 
DOCKED: REMARK  7 active torsions:
DOCKED: REMARK  status: ('A' for Active; 'I' for Inactive)
DOCKED: REMARK    1  A    between atoms: C_1  and  C_2
DOCKED: REMARK    2  A    between atoms: C_2  and  C_3
DOCKED: REMARK    3  A    between atoms: CA_6  and  N_7
DOCKED: REMARK    4  A    between atoms: C_8  and  C_10
DOCKED: REMARK    5  A    between atoms: C_10  and  C_11
DOCKED: REMARK    6  A    between atoms: CA_20  and  C_21
DOCKED: REMARK    7  A    between atoms: C_21  and  OXT_23
DOCKED: REMARK                            x       y       z     vdW  Elec       q    Type
DOCKED: REMARK                         _______ _______ _______ _____ _____    ______ ____
DOCKED: USER                              x       y       z     vdW  Elec       q    Type
DOCKED: USER                           _______ _______ _______ _____ _____    ______ ____
DOCKED: ROOT
DOCKED: ATOM      1  C   UNL     1      10.407  19.261  17.775 -0.21 -0.00    +0.025 C  
DOCKED: ATOM      2  C   UNL     1      10.307  20.153  16.535 -0.34 -0.01    +0.042 C  
DOCKED: ATOM      3  C   UNL     1      10.322  19.304  15.258 -0.46 -0.00    +0.025 C  
DOCKED: ATOM      4  S   UNL     1      11.796  21.273  16.486 -0.39 +0.01    -0.127 S  
DOCKED: ATOM      5  C   UNL     1      10.908  22.499  15.445 -0.18 +0.00    +0.165 C  
DOCKED: ATOM      6  CA  UNL     1      10.825  23.968  15.922 -0.27 +0.01    +0.190 C  
DOCKED: ATOM      7  C   UNL     1       9.422  23.563  16.428 -0.23 -0.07    +0.240 C  
DOCKED: ATOM      8  O   UNL     1       8.562  23.997  17.157 -0.17 +0.14    -0.273 OA 
DOCKED: ATOM      9  N   UNL     1       9.488  22.334  15.837 -0.20 +0.05    -0.271 N  
DOCKED: ATOM     10  CA  UNL     1       9.143  21.152  16.639 -0.19 -0.04    +0.201 C  
DOCKED: ENDROOT
DOCKED: BRANCH   6  11
DOCKED: ATOM     11  N   UNL     1      11.812  24.416  16.936 -0.12 -0.02    -0.301 N  
DOCKED: ATOM     12  C   UNL     1      11.896  25.749  17.279 -0.09 +0.03    +0.218 C  
DOCKED: ATOM     13  O   UNL     1      11.163  26.597  16.776 -0.60 -0.05    -0.275 OA 
DOCKED: ATOM     14  H   UNL     1      12.424  23.750  17.396 +0.05 +0.00    +0.150 HD 
DOCKED: BRANCH  12  15
DOCKED: ATOM     15  C   UNL     1      12.955  26.085  18.310 -0.14 -0.00    +0.130 C  
DOCKED: BRANCH  15  16
DOCKED: ATOM     16  C   UNL     1      14.338  25.611  17.935 -0.14 -0.00    -0.039 A  
DOCKED: ATOM     17  C   UNL     1      14.698  24.266  18.096 -0.17 -0.00    +0.004 A  
DOCKED: ATOM     18  C   UNL     1      15.957  23.816  17.689 -0.26 -0.00    +0.000 A  
DOCKED: ATOM     19  C   UNL     1      16.867  24.704  17.117 -0.28 -0.00    +0.000 A  
DOCKED: ATOM     20  C   UNL     1      16.522  26.045  16.962 -0.24 +0.00    +0.000 A  
DOCKED: ATOM     21  C   UNL     1      15.266  26.497  17.367 -0.17 +0.00    +0.004 A  
DOCKED: ENDBRANCH  15  16
DOCKED: ENDBRANCH  12  15
DOCKED: ENDBRANCH   6  11
DOCKED: BRANCH  10  22
DOCKED: ATOM     22  C   UNL     1       7.757  20.612  16.279 -0.16 -0.06    +0.327 C  
DOCKED: ATOM     23  O   UNL     1       7.472  19.425  16.218 -0.21 +0.03    -0.249 OA 
DOCKED: BRANCH  22  24
DOCKED: ATOM     24  OXT UNL     1       6.808  21.575  16.172 -0.10 +0.14    -0.479 OA 
DOCKED: ATOM     25  HXT UNL     1       7.131  22.458  16.455 +0.10 -0.11    +0.295 HD 
DOCKED: ENDBRANCH  22  24
DOCKED: ENDBRANCH  10  22
DOCKED: TORSDOF 5
DOCKED: TER
DOCKED: ENDMDL
________________________________________________________________________________


    FINAL DOCKED STATE:
    ________________________


Run:   26 / 50
Time taken for this run:   0.000s

DOCKED: MODEL        26
DOCKED: USER    Run = 26
DOCKED: USER
DOCKED: USER    Estimated Free Energy of Binding    =  -3.47 kcal/mol  [=(1)+(2)+(3)-(4)]
DOCKED: USER
DOCKED: USER    (1) Final Intermolecular Energy     =  -4.96 kcal/mol
DOCKED: USER        vdW + Hbond + desolv Energy     =  -4.71 kcal/mol
DOCKED: USER        Electrostatic Energy            =  -0.25 kcal/mol
DOCKED: USER        Moving Ligand-Fixed Receptor    =  -4.96 kcal/mol
DOCKED: USER        Moving Ligand-Moving Receptor   =  +0.00 kcal/mol
DOCKED: USER    (2) Final Total Internal Energy     =  -1.75 kcal/mol
DOCKED: USER    (3) Torsional Free Energy           =  +1.49 kcal/mol
DOCKED: USER    (4) Unbound System's Energy         =  -1.75 kcal/mol
DOCKED: USER
DOCKED: USER
DOCKED: REMARK  Name = 
DOCKED: REMARK  7 active torsions:
DOCKED: REMARK  status: ('A' for Active; 'I' for Inactive)
DOCKED: REMARK    1  A    between atoms: C_1  and  C_2
DOCKED: REMARK    2  A    between atoms: C_2  and  C_3
DOCKED: REMARK    3  A    between atoms: CA_6  and  N_7
DOCKED: REMARK    4  A    between atoms: C_8  and  C_10
DOCKED: REMARK    5  A    between atoms: C_10  and  C_11
DOCKED: REMARK    6  A    between atoms: CA_20  and  C_21
DOCKED: REMARK    7  A    between atoms: C_21  and  OXT_23
DOCKED: REMARK                            x       y       z     vdW  Elec       q    Type
DOCKED: REMARK                         _______ _______ _______ _____ _____    ______ ____
DOCKED: USER                              x       y       z     vdW  Elec       q    Type
DOCKED: USER                           _______ _______ _______ _____ _____    ______ ____
DOCKED: ROOT
DOCKED: ATOM      1  C   UNL     1      14.814  23.559  17.510 -0.24 -0.00    +0.025 C  
DOCKED: ATOM      2  C   UNL     1      14.052  24.444  18.499 -0.13 -0.00    +0.042 C  
DOCKED: ATOM      3  C   UNL     1      14.780  24.495  19.848 -0.05 -0.00    +0.025 C  
DOCKED: ATOM      4  S   UNL     1      12.370  23.698  18.793 -0.11 +0.02    -0.127 S  
DOCKED: ATOM      5  C   UNL     1      11.679  25.320  19.309 -0.05 -0.04    +0.165 C  
DOCKED: ATOM      6  CA  UNL     1      10.422  25.862  18.590 -0.12 -0.10    +0.190 C  
DOCKED: ATOM      7  C   UNL     1      11.437  26.693  17.773 -0.17 -0.05    +0.240 C  
DOCKED: ATOM      8  O   UNL     1      11.461  27.356  16.762 -0.52 -0.11    -0.273 OA 
DOCKED: ATOM      9  N   UNL     1      12.488  26.306  18.554 -0.08 +0.02    -0.271 N  
DOCKED: ATOM     10  CA  UNL     1      13.707  25.816  17.895 -0.13 +0.02    +0.201 C  
DOCKED: ENDROOT
DOCKED: BRANCH   6  11
DOCKED: ATOM     11  N   UNL     1       9.582  24.889  17.848 -0.11 +0.17    -0.301 N  
DOCKED: ATOM     12  C   UNL     1      10.035  24.342  16.667 -0.22 -0.06    +0.218 C  
DOCKED: ATOM     13  O   UNL     1      11.136  24.626  16.199 -0.24 -0.03    -0.275 OA 
DOCKED: ATOM     14  H   UNL     1       8.676  24.606  18.206 +0.03 -0.10    +0.150 HD 
DOCKED: BRANCH  12  15
DOCKED: ATOM     15  C   UNL     1       9.080  23.377  15.994 -0.30 -0.04    +0.130 C  
DOCKED: BRANCH  15  16
DOCKED: ATOM     16  C   UNL     1       9.645  21.988  15.821 -0.26 +0.01    -0.039 A  
DOCKED: ATOM     17  C   UNL     1      11.030  21.779  15.800 -0.30 -0.00    +0.004 A  
DOCKED: ATOM     18  C   UNL     1      11.552  20.486  15.704 -0.40 -0.00    +0.000 A  
DOCKED: ATOM     19  C   UNL     1      10.694  19.390  15.628 -0.46 -0.00    +0.000 A  
DOCKED: ATOM     20  C   UNL     1       9.315  19.586  15.638 -0.39 -0.00    +0.000 A  
DOCKED: ATOM     21  C   UNL     1       8.792  20.877  15.734 -0.32 -0.00    +0.004 A  
DOCKED: ENDBRANCH  15  16
DOCKED: ENDBRANCH  12  15
DOCKED: ENDBRANCH   6  11
DOCKED: BRANCH  10  22
DOCKED: ATOM     22  C   UNL     1      14.822  26.864  17.920 -0.09 +0.03    +0.327 C  
DOCKED: ATOM     23  O   UNL     1      16.009  26.606  18.047 -0.07 -0.00    -0.249 OA 
DOCKED: BRANCH  22  24
DOCKED: ATOM     24  OXT UNL     1      14.395  28.120  17.639 -0.06 -0.10    -0.479 OA 
DOCKED: ATOM     25  HXT UNL     1      13.434  28.157  17.442 +0.06 +0.12    +0.295 HD 
DOCKED: ENDBRANCH  22  24
DOCKED: ENDBRANCH  10  22
DOCKED: TORSDOF 5
DOCKED: TER
DOCKED: ENDMDL
________________________________________________________________________________


    FINAL DOCKED STATE:
    ________________________


Run:   27 / 50
Time taken for this run:   0.000s

DOCKED: MODEL        27
DOCKED: USER    Run = 27
DOCKED: USER
DOCKED: USER    Estimated Free Energy of Binding    =  -3.80 kcal/mol  [=(1)+(2)+(3)-(4)]
DOCKED: USER
DOCKED: USER    (1) Final Intermolecular Energy     =  -5.29 kcal/mol
DOCKED: USER        vdW + Hbond + desolv Energy     =  -4.89 kcal/mol
DOCKED: USER        Electrostatic Energy            =  -0.41 kcal/mol
DOCKED: USER        Moving Ligand-Fixed Receptor    =  -5.29 kcal/mol
DOCKED: USER        Moving Ligand-Moving Receptor   =  +0.00 kcal/mol
DOCKED: USER    (2) Final Total Internal Energy     =  -1.60 kcal/mol
DOCKED: USER    (3) Torsional Free Energy           =  +1.49 kcal/mol
DOCKED: USER    (4) Unbound System's Energy         =  -1.60 kcal/mol
DOCKED: USER
DOCKED: USER
DOCKED: REMARK  Name = 
DOCKED: REMARK  7 active torsions:
DOCKED: REMARK  status: ('A' for Active; 'I' for Inactive)
DOCKED: REMARK    1  A    between atoms: C_1  and  C_2
DOCKED: REMARK    2  A    between atoms: C_2  and  C_3
DOCKED: REMARK    3  A    between atoms: CA_6  and  N_7
DOCKED: REMARK    4  A    between atoms: C_8  and  C_10
DOCKED: REMARK    5  A    between atoms: C_10  and  C_11
DOCKED: REMARK    6  A    between atoms: CA_20  and  C_21
DOCKED: REMARK    7  A    between atoms: C_21  and  OXT_23
DOCKED: REMARK                            x       y       z     vdW  Elec       q    Type
DOCKED: REMARK                         _______ _______ _______ _____ _____    ______ ____
DOCKED: USER                              x       y       z     vdW  Elec       q    Type
DOCKED: USER                           _______ _______ _______ _____ _____    ______ ____
DOCKED: ROOT
DOCKED: ATOM      1  C   UNL     1      19.086  29.591  10.016 -0.51 -0.01    +0.025 C  
DOCKED: ATOM      2  C   UNL     1      19.677  30.815  10.719 -0.33 -0.02    +0.042 C  
DOCKED: ATOM      3  C   UNL     1      21.101  30.522  11.204 -0.23 -0.01    +0.025 C  
DOCKED: ATOM      4  S   UNL     1      18.638  31.201  12.217 -0.23 +0.12    -0.127 S  
DOCKED: ATOM      5  C   UNL     1      19.191  32.953  12.219 -0.07 -0.09    +0.165 C  
DOCKED: ATOM      6  CA  UNL     1      18.127  34.075  12.192 -0.06 -0.12    +0.190 C  
DOCKED: ATOM      7  C   UNL     1      18.425  34.110  10.676 -0.07 -0.12    +0.240 C  
DOCKED: ATOM      8  O   UNL     1      17.942  34.570   9.668 -0.08 +0.10    -0.273 OA 
DOCKED: ATOM      9  N   UNL     1      19.469  33.237  10.790 -0.05 +0.10    -0.271 N  
DOCKED: ATOM     10  CA  UNL     1      19.528  32.091   9.873 -0.19 -0.05    +0.201 C  
DOCKED: ENDROOT
DOCKED: BRANCH   6  11
DOCKED: ATOM     11  N   UNL     1      16.748  33.722  12.608 -0.02 +0.33    -0.301 N  
DOCKED: ATOM     12  C   UNL     1      15.931  34.675  13.179 -0.08 -0.13    +0.218 C  
DOCKED: ATOM     13  O   UNL     1      16.306  35.833  13.351 -0.02 +0.10    -0.275 OA 
DOCKED: ATOM     14  H   UNL     1      16.385  32.785  12.466 -0.39 -0.35    +0.150 HD 
DOCKED: BRANCH  12  15
DOCKED: ATOM     15  C   UNL     1      14.553  34.189  13.579 -0.16 -0.07    +0.130 C  
DOCKED: BRANCH  15  16
DOCKED: ATOM     16  C   UNL     1      13.475  34.537  12.581 -0.17 +0.02    -0.039 A  
DOCKED: ATOM     17  C   UNL     1      13.415  33.887  11.341 -0.27 -0.00    +0.004 A  
DOCKED: ATOM     18  C   UNL     1      12.380  34.164  10.444 -0.35 -0.00    +0.000 A  
DOCKED: ATOM     19  C   UNL     1      11.395  35.092  10.778 -0.35 -0.00    +0.000 A  
DOCKED: ATOM     20  C   UNL     1      11.449  35.750  12.004 -0.26 -0.00    +0.000 A  
DOCKED: ATOM     21  C   UNL     1      12.482  35.476  12.902 -0.13 -0.00    +0.004 A  
DOCKED: ENDBRANCH  15  16
DOCKED: ENDBRANCH  12  15
DOCKED: ENDBRANCH   6  11
DOCKED: BRANCH  10  22
DOCKED: ATOM     22  C   UNL     1      20.574  32.299   8.776 -0.14 +0.08    +0.327 C  
DOCKED: ATOM     23  O   UNL     1      21.385  31.455   8.425 -0.29 -0.05    -0.249 OA 
DOCKED: BRANCH  22  24
DOCKED: ATOM     24  OXT UNL     1      20.436  33.470   8.106 -0.51 -0.33    -0.479 OA 
DOCKED: ATOM     25  HXT UNL     1      19.712  34.028   8.465 +0.07 +0.10    +0.295 HD 
DOCKED: ENDBRANCH  22  24
DOCKED: ENDBRANCH  10  22
DOCKED: TORSDOF 5
DOCKED: TER
DOCKED: ENDMDL
________________________________________________________________________________


    FINAL DOCKED STATE:
    ________________________


Run:   28 / 50
Time taken for this run:   0.000s

DOCKED: MODEL        28
DOCKED: USER    Run = 28
DOCKED: USER
DOCKED: USER    Estimated Free Energy of Binding    =  -4.53 kcal/mol  [=(1)+(2)+(3)-(4)]
DOCKED: USER
DOCKED: USER    (1) Final Intermolecular Energy     =  -6.02 kcal/mol
DOCKED: USER        vdW + Hbond + desolv Energy     =  -5.28 kcal/mol
DOCKED: USER        Electrostatic Energy            =  -0.74 kcal/mol
DOCKED: USER        Moving Ligand-Fixed Receptor    =  -6.02 kcal/mol
DOCKED: USER        Moving Ligand-Moving Receptor   =  +0.00 kcal/mol
DOCKED: USER    (2) Final Total Internal Energy     =  -1.73 kcal/mol
DOCKED: USER    (3) Torsional Free Energy           =  +1.49 kcal/mol
DOCKED: USER    (4) Unbound System's Energy         =  -1.73 kcal/mol
DOCKED: USER
DOCKED: USER
DOCKED: REMARK  Name = 
DOCKED: REMARK  7 active torsions:
DOCKED: REMARK  status: ('A' for Active; 'I' for Inactive)
DOCKED: REMARK    1  A    between atoms: C_1  and  C_2
DOCKED: REMARK    2  A    between atoms: C_2  and  C_3
DOCKED: REMARK    3  A    between atoms: CA_6  and  N_7
DOCKED: REMARK    4  A    between atoms: C_8  and  C_10
DOCKED: REMARK    5  A    between atoms: C_10  and  C_11
DOCKED: REMARK    6  A    between atoms: CA_20  and  C_21
DOCKED: REMARK    7  A    between atoms: C_21  and  OXT_23
DOCKED: REMARK                            x       y       z     vdW  Elec       q    Type
DOCKED: REMARK                         _______ _______ _______ _____ _____    ______ ____
DOCKED: USER                              x       y       z     vdW  Elec       q    Type
DOCKED: USER                           _______ _______ _______ _____ _____    ______ ____
DOCKED: ROOT
DOCKED: ATOM      1  C   UNL     1       9.112  31.182  17.907 -0.15 -0.02    +0.025 C  
DOCKED: ATOM      2  C   UNL     1       7.642  31.493  18.200 -0.18 -0.03    +0.042 C  
DOCKED: ATOM      3  C   UNL     1       7.512  32.819  18.958 -0.14 -0.01    +0.025 C  
DOCKED: ATOM      4  S   UNL     1       6.955  30.148  19.292 -0.15 +0.13    -0.127 S  
DOCKED: ATOM      5  C   UNL     1       5.238  30.503  18.742 -0.19 -0.18    +0.165 C  
DOCKED: ATOM      6  CA  UNL     1       4.385  29.352  18.160 -0.19 -0.22    +0.190 C  
DOCKED: ATOM      7  C   UNL     1       4.812  29.932  16.793 -0.26 -0.25    +0.240 C  
DOCKED: ATOM      8  O   UNL     1       4.805  29.608  15.629 -0.62 +0.15    -0.273 OA 
DOCKED: ATOM      9  N   UNL     1       5.408  31.020  17.364 -0.21 +0.24    -0.271 N  
DOCKED: ATOM     10  CA  UNL     1       6.769  31.377  16.939 -0.27 -0.14    +0.201 C  
DOCKED: ENDROOT
DOCKED: BRANCH   6  11
DOCKED: ATOM     11  N   UNL     1       4.802  27.962  18.472 -0.03 +0.39    -0.301 N  
DOCKED: ATOM     12  C   UNL     1       4.210  27.277  19.511 -0.05 -0.17    +0.218 C  
DOCKED: ATOM     13  O   UNL     1       3.322  27.779  20.198 -0.02 +0.18    -0.275 OA 
DOCKED: ATOM     14  H   UNL     1       5.515  27.497  17.919 -0.42 -0.37    +0.150 HD 
DOCKED: BRANCH  12  15
DOCKED: ATOM     15  C   UNL     1       4.735  25.874  19.742 -0.05 -0.08    +0.130 C  
DOCKED: BRANCH  15  16
DOCKED: ATOM     16  C   UNL     1       5.157  25.169  18.476 -0.09 +0.03    -0.039 A  
DOCKED: ATOM     17  C   UNL     1       6.382  24.493  18.411 -0.12 -0.00    +0.004 A  
DOCKED: ATOM     18  C   UNL     1       6.743  23.788  17.260 -0.20 -0.00    +0.000 A  
DOCKED: ATOM     19  C   UNL     1       5.882  23.750  16.164 -0.24 -0.00    +0.000 A  
DOCKED: ATOM     20  C   UNL     1       4.666  24.426  16.214 -0.24 -0.00    +0.000 A  
DOCKED: ATOM     21  C   UNL     1       4.303  25.131  17.362 -0.13 -0.00    +0.004 A  
DOCKED: ENDBRANCH  15  16
DOCKED: ENDBRANCH  12  15
DOCKED: ENDBRANCH   6  11
DOCKED: BRANCH  10  22
DOCKED: ATOM     22  C   UNL     1       6.769  32.588  16.004 -0.25 +0.08    +0.327 C  
DOCKED: ATOM     23  O   UNL     1       7.557  33.518  16.079 -0.33 -0.18    -0.249 OA 
DOCKED: BRANCH  22  24
DOCKED: ATOM     24  OXT UNL     1       5.898  32.478  14.970 -0.59 -0.17    -0.479 OA 
DOCKED: ATOM     25  HXT UNL     1       5.466  31.598  14.932 -0.13 -0.11    +0.295 HD 
DOCKED: ENDBRANCH  22  24
DOCKED: ENDBRANCH  10  22
DOCKED: TORSDOF 5
DOCKED: TER
DOCKED: ENDMDL
________________________________________________________________________________


    FINAL DOCKED STATE:
    ________________________


Run:   29 / 50
Time taken for this run:   0.000s

DOCKED: MODEL        29
DOCKED: USER    Run = 29
DOCKED: USER
DOCKED: USER    Estimated Free Energy of Binding    =  -4.33 kcal/mol  [=(1)+(2)+(3)-(4)]
DOCKED: USER
DOCKED: USER    (1) Final Intermolecular Energy     =  -5.82 kcal/mol
DOCKED: USER        vdW + Hbond + desolv Energy     =  -5.16 kcal/mol
DOCKED: USER        Electrostatic Energy            =  -0.66 kcal/mol
DOCKED: USER        Moving Ligand-Fixed Receptor    =  -5.82 kcal/mol
DOCKED: USER        Moving Ligand-Moving Receptor   =  +0.00 kcal/mol
DOCKED: USER    (2) Final Total Internal Energy     =  -1.41 kcal/mol
DOCKED: USER    (3) Torsional Free Energy           =  +1.49 kcal/mol
DOCKED: USER    (4) Unbound System's Energy         =  -1.41 kcal/mol
DOCKED: USER
DOCKED: USER
DOCKED: REMARK  Name = 
DOCKED: REMARK  7 active torsions:
DOCKED: REMARK  status: ('A' for Active; 'I' for Inactive)
DOCKED: REMARK    1  A    between atoms: C_1  and  C_2
DOCKED: REMARK    2  A    between atoms: C_2  and  C_3
DOCKED: REMARK    3  A    between atoms: CA_6  and  N_7
DOCKED: REMARK    4  A    between atoms: C_8  and  C_10
DOCKED: REMARK    5  A    between atoms: C_10  and  C_11
DOCKED: REMARK    6  A    between atoms: CA_20  and  C_21
DOCKED: REMARK    7  A    between atoms: C_21  and  OXT_23
DOCKED: REMARK                            x       y       z     vdW  Elec       q    Type
DOCKED: REMARK                         _______ _______ _______ _____ _____    ______ ____
DOCKED: USER                              x       y       z     vdW  Elec       q    Type
DOCKED: USER                           _______ _______ _______ _____ _____    ______ ____
DOCKED: ROOT
DOCKED: ATOM      1  C   UNL     1       8.803  31.252  17.466 -0.16 -0.02    +0.025 C  
DOCKED: ATOM      2  C   UNL     1       7.338  31.502  17.829 -0.22 -0.03    +0.042 C  
DOCKED: ATOM      3  C   UNL     1       7.169  32.886  18.467 -0.19 -0.01    +0.025 C  
DOCKED: ATOM      4  S   UNL     1       6.811  30.232  19.088 -0.16 +0.14    -0.127 S  
DOCKED: ATOM      5  C   UNL     1       5.043  30.428  18.628 -0.20 -0.19    +0.165 C  
DOCKED: ATOM      6  CA  UNL     1       4.233  29.177  18.217 -0.18 -0.21    +0.190 C  
DOCKED: ATOM      7  C   UNL     1       4.533  29.646  16.775 -0.24 -0.24    +0.240 C  
DOCKED: ATOM      8  O   UNL     1       4.473  29.209  15.650 -0.78 +0.18    -0.273 OA 
DOCKED: ATOM      9  N   UNL     1       5.091  30.818  17.198 -0.24 +0.25    -0.271 N  
DOCKED: ATOM     10  CA  UNL     1       6.396  31.211  16.649 -0.31 -0.15    +0.201 C  
DOCKED: ENDROOT
DOCKED: BRANCH   6  11
DOCKED: ATOM     11  N   UNL     1       4.760  27.852  18.628 -0.05 +0.37    -0.301 N  
DOCKED: ATOM     12  C   UNL     1       4.419  27.320  19.853 -0.05 -0.16    +0.218 C  
DOCKED: ATOM     13  O   UNL     1       3.670  27.908  20.630 -0.02 +0.18    -0.275 OA 
DOCKED: ATOM     14  H   UNL     1       5.363  27.319  18.010 -0.40 -0.32    +0.150 HD 
DOCKED: BRANCH  12  15
DOCKED: ATOM     15  C   UNL     1       5.035  25.971  20.165 -0.04 -0.08    +0.130 C  
DOCKED: BRANCH  15  16
DOCKED: ATOM     16  C   UNL     1       6.494  25.871  19.790 -0.08 +0.03    -0.039 A  
DOCKED: ATOM     17  C   UNL     1       6.965  24.781  19.047 -0.10 -0.00    +0.004 A  
DOCKED: ATOM     18  C   UNL     1       8.302  24.720  18.646 -0.13 -0.00    +0.000 A  
DOCKED: ATOM     19  C   UNL     1       9.181  25.749  18.983 -0.12 -0.00    +0.000 A  
DOCKED: ATOM     20  C   UNL     1       8.726  26.832  19.730 -0.09 -0.00    +0.000 A  
DOCKED: ATOM     21  C   UNL     1       7.391  26.895  20.131 -0.08 -0.00    +0.004 A  
DOCKED: ENDBRANCH  15  16
DOCKED: ENDBRANCH  12  15
DOCKED: ENDBRANCH   6  11
DOCKED: BRANCH  10  22
DOCKED: ATOM     22  C   UNL     1       6.256  32.323  15.607 -0.26 +0.05    +0.327 C  
DOCKED: ATOM     23  O   UNL     1       6.684  32.256  14.464 -0.76 -0.13    -0.249 OA 
DOCKED: BRANCH  22  24
DOCKED: ATOM     24  OXT UNL     1       5.476  33.355  16.012 -0.48 -0.30    -0.479 OA 
DOCKED: ATOM     25  HXT UNL     1       4.542  33.090  16.156 +0.19 +0.01    +0.295 HD 
DOCKED: ENDBRANCH  22  24
DOCKED: ENDBRANCH  10  22
DOCKED: TORSDOF 5
DOCKED: TER
DOCKED: ENDMDL
________________________________________________________________________________


    FINAL DOCKED STATE:
    ________________________


Run:   30 / 50
Time taken for this run:   0.000s

DOCKED: MODEL        30
DOCKED: USER    Run = 30
DOCKED: USER
DOCKED: USER    Estimated Free Energy of Binding    =  -3.65 kcal/mol  [=(1)+(2)+(3)-(4)]
DOCKED: USER
DOCKED: USER    (1) Final Intermolecular Energy     =  -5.14 kcal/mol
DOCKED: USER        vdW + Hbond + desolv Energy     =  -5.18 kcal/mol
DOCKED: USER        Electrostatic Energy            =  +0.04 kcal/mol
DOCKED: USER        Moving Ligand-Fixed Receptor    =  -5.14 kcal/mol
DOCKED: USER        Moving Ligand-Moving Receptor   =  +0.00 kcal/mol
DOCKED: USER    (2) Final Total Internal Energy     =  -1.72 kcal/mol
DOCKED: USER    (3) Torsional Free Energy           =  +1.49 kcal/mol
DOCKED: USER    (4) Unbound System's Energy         =  -1.72 kcal/mol
DOCKED: USER
DOCKED: USER
DOCKED: REMARK  Name = 
DOCKED: REMARK  7 active torsions:
DOCKED: REMARK  status: ('A' for Active; 'I' for Inactive)
DOCKED: REMARK    1  A    between atoms: C_1  and  C_2
DOCKED: REMARK    2  A    between atoms: C_2  and  C_3
DOCKED: REMARK    3  A    between atoms: CA_6  and  N_7
DOCKED: REMARK    4  A    between atoms: C_8  and  C_10
DOCKED: REMARK    5  A    between atoms: C_10  and  C_11
DOCKED: REMARK    6  A    between atoms: CA_20  and  C_21
DOCKED: REMARK    7  A    between atoms: C_21  and  OXT_23
DOCKED: REMARK                            x       y       z     vdW  Elec       q    Type
DOCKED: REMARK                         _______ _______ _______ _____ _____    ______ ____
DOCKED: USER                              x       y       z     vdW  Elec       q    Type
DOCKED: USER                           _______ _______ _______ _____ _____    ______ ____
DOCKED: ROOT
DOCKED: ATOM      1  C   UNL     1      10.420  19.264  17.763 -0.21 -0.00    +0.025 C  
DOCKED: ATOM      2  C   UNL     1      10.316  20.157  16.525 -0.34 -0.01    +0.042 C  
DOCKED: ATOM      3  C   UNL     1      10.332  19.311  15.247 -0.45 -0.00    +0.025 C  
DOCKED: ATOM      4  S   UNL     1      11.800  21.283  16.476 -0.39 +0.01    -0.127 S  
DOCKED: ATOM      5  C   UNL     1      10.907  22.508  15.438 -0.18 +0.00    +0.165 C  
DOCKED: ATOM      6  CA  UNL     1      10.819  23.975  15.918 -0.27 +0.00    +0.190 C  
DOCKED: ATOM      7  C   UNL     1       9.417  23.564  16.424 -0.23 -0.07    +0.240 C  
DOCKED: ATOM      8  O   UNL     1       8.556  23.994  17.155 -0.17 +0.14    -0.273 OA 
DOCKED: ATOM      9  N   UNL     1       9.487  22.336  15.831 -0.20 +0.05    -0.271 N  
DOCKED: ATOM     10  CA  UNL     1       9.147  21.151  16.631 -0.20 -0.04    +0.201 C  
DOCKED: ENDROOT
DOCKED: BRANCH   6  11
DOCKED: ATOM     11  N   UNL     1      11.805  24.426  16.932 -0.12 -0.02    -0.301 N  
DOCKED: ATOM     12  C   UNL     1      11.892  25.759  17.269 -0.08 +0.03    +0.218 C  
DOCKED: ATOM     13  O   UNL     1      11.161  26.607  16.760 -0.60 -0.05    -0.275 OA 
DOCKED: ATOM     14  H   UNL     1      12.413  23.760  17.397 +0.05 +0.00    +0.150 HD 
DOCKED: BRANCH  12  15
DOCKED: ATOM     15  C   UNL     1      12.949  26.097  18.301 -0.14 -0.00    +0.130 C  
DOCKED: BRANCH  15  16
DOCKED: ATOM     16  C   UNL     1      14.333  25.626  17.927 -0.14 -0.00    -0.039 A  
DOCKED: ATOM     17  C   UNL     1      14.695  24.281  18.084 -0.17 -0.00    +0.004 A  
DOCKED: ATOM     18  C   UNL     1      15.954  23.833  17.679 -0.26 -0.00    +0.000 A  
DOCKED: ATOM     19  C   UNL     1      16.864  24.724  17.110 -0.28 -0.00    +0.000 A  
DOCKED: ATOM     20  C   UNL     1      16.519  26.064  16.957 -0.24 +0.00    +0.000 A  
DOCKED: ATOM     21  C   UNL     1      15.261  26.514  17.362 -0.17 +0.00    +0.004 A  
DOCKED: ENDBRANCH  15  16
DOCKED: ENDBRANCH  12  15
DOCKED: ENDBRANCH   6  11
DOCKED: BRANCH  10  22
DOCKED: ATOM     22  C   UNL     1       7.763  20.607  16.272 -0.16 -0.06    +0.327 C  
DOCKED: ATOM     23  O   UNL     1       7.492  19.419  16.172 -0.21 +0.03    -0.249 OA 
DOCKED: BRANCH  22  24
DOCKED: ATOM     24  OXT UNL     1       6.801  21.561  16.213 -0.10 +0.14    -0.479 OA 
DOCKED: ATOM     25  HXT UNL     1       7.139  22.454  16.439 +0.10 -0.11    +0.295 HD 
DOCKED: ENDBRANCH  22  24
DOCKED: ENDBRANCH  10  22
DOCKED: TORSDOF 5
DOCKED: TER
DOCKED: ENDMDL
________________________________________________________________________________


    FINAL DOCKED STATE:
    ________________________


Run:   31 / 50
Time taken for this run:   0.000s

DOCKED: MODEL        31
DOCKED: USER    Run = 31
DOCKED: USER
DOCKED: USER    Estimated Free Energy of Binding    =  -4.26 kcal/mol  [=(1)+(2)+(3)-(4)]
DOCKED: USER
DOCKED: USER    (1) Final Intermolecular Energy     =  -5.75 kcal/mol
DOCKED: USER        vdW + Hbond + desolv Energy     =  -5.40 kcal/mol
DOCKED: USER        Electrostatic Energy            =  -0.35 kcal/mol
DOCKED: USER        Moving Ligand-Fixed Receptor    =  -5.75 kcal/mol
DOCKED: USER        Moving Ligand-Moving Receptor   =  +0.00 kcal/mol
DOCKED: USER    (2) Final Total Internal Energy     =  -1.55 kcal/mol
DOCKED: USER    (3) Torsional Free Energy           =  +1.49 kcal/mol
DOCKED: USER    (4) Unbound System's Energy         =  -1.55 kcal/mol
DOCKED: USER
DOCKED: USER
DOCKED: REMARK  Name = 
DOCKED: REMARK  7 active torsions:
DOCKED: REMARK  status: ('A' for Active; 'I' for Inactive)
DOCKED: REMARK    1  A    between atoms: C_1  and  C_2
DOCKED: REMARK    2  A    between atoms: C_2  and  C_3
DOCKED: REMARK    3  A    between atoms: CA_6  and  N_7
DOCKED: REMARK    4  A    between atoms: C_8  and  C_10
DOCKED: REMARK    5  A    between atoms: C_10  and  C_11
DOCKED: REMARK    6  A    between atoms: CA_20  and  C_21
DOCKED: REMARK    7  A    between atoms: C_21  and  OXT_23
DOCKED: REMARK                            x       y       z     vdW  Elec       q    Type
DOCKED: REMARK                         _______ _______ _______ _____ _____    ______ ____
DOCKED: USER                              x       y       z     vdW  Elec       q    Type
DOCKED: USER                           _______ _______ _______ _____ _____    ______ ____
DOCKED: ROOT
DOCKED: ATOM      1  C   UNL     1      20.202  29.784   9.962 -0.38 -0.01    +0.025 C  
DOCKED: ATOM      2  C   UNL     1      20.321  31.249  10.387 -0.27 -0.01    +0.042 C  
DOCKED: ATOM      3  C   UNL     1      21.323  31.397  11.538 -0.13 -0.01    +0.025 C  
DOCKED: ATOM      4  S   UNL     1      18.661  31.826  11.008 -0.20 +0.12    -0.127 S  
DOCKED: ATOM      5  C   UNL     1      19.077  33.581  10.659 -0.10 -0.07    +0.165 C  
DOCKED: ATOM      6  CA  UNL     1      18.130  34.413   9.764 -0.10 -0.07    +0.190 C  
DOCKED: ATOM      7  C   UNL     1      19.142  34.078   8.645 -0.10 +0.04    +0.240 C  
DOCKED: ATOM      8  O   UNL     1      19.209  34.128   7.440 -0.22 -0.24    -0.273 OA 
DOCKED: ATOM      9  N   UNL     1      20.020  33.500   9.517 -0.07 +0.01    -0.271 N  
DOCKED: ATOM     10  CA  UNL     1      20.568  32.178   9.187 -0.21 +0.02    +0.201 C  
DOCKED: ENDROOT
DOCKED: BRANCH   6  11
DOCKED: ATOM     11  N   UNL     1      16.739  33.923   9.595 -0.02 +0.26    -0.301 N  
DOCKED: ATOM     12  C   UNL     1      16.041  34.203   8.440 -0.23 -0.08    +0.218 C  
DOCKED: ATOM     13  O   UNL     1      16.540  34.846   7.519 -0.16 -0.00    -0.275 OA 
DOCKED: ATOM     14  H   UNL     1      16.292  33.367  10.318 -0.40 -0.34    +0.150 HD 
DOCKED: BRANCH  12  15
DOCKED: ATOM     15  C   UNL     1      14.625  33.664   8.394 -0.33 -0.06    +0.130 C  
DOCKED: BRANCH  15  16
DOCKED: ATOM     16  C   UNL     1      13.591  34.638   8.905 -0.33 +0.01    -0.039 A  
DOCKED: ATOM     17  C   UNL     1      13.243  35.768   8.153 -0.32 +0.00    +0.004 A  
DOCKED: ATOM     18  C   UNL     1      12.241  36.634   8.596 -0.36 +0.00    +0.000 A  
DOCKED: ATOM     19  C   UNL     1      11.574  36.379   9.794 -0.31 -0.00    +0.000 A  
DOCKED: ATOM     20  C   UNL     1      11.918  35.263  10.554 -0.32 -0.00    +0.000 A  
DOCKED: ATOM     21  C   UNL     1      12.919  34.397  10.113 -0.34 -0.00    +0.004 A  
DOCKED: ENDBRANCH  15  16
DOCKED: ENDBRANCH  12  15
DOCKED: ENDBRANCH   6  11
DOCKED: BRANCH  10  22
DOCKED: ATOM     22  C   UNL     1      22.014  32.274   8.695 -0.17 +0.04    +0.327 C  
DOCKED: ATOM     23  O   UNL     1      22.900  31.489   8.997 -0.26 -0.00    -0.249 OA 
DOCKED: BRANCH  22  24
DOCKED: ATOM     24  OXT UNL     1      22.208  33.237   7.760 -0.14 -0.17    -0.479 OA 
DOCKED: ATOM     25  HXT UNL     1      21.408  33.785   7.609 +0.07 +0.21    +0.295 HD 
DOCKED: ENDBRANCH  22  24
DOCKED: ENDBRANCH  10  22
DOCKED: TORSDOF 5
DOCKED: TER
DOCKED: ENDMDL
________________________________________________________________________________


    FINAL DOCKED STATE:
    ________________________


Run:   32 / 50
Time taken for this run:   0.000s

DOCKED: MODEL        32
DOCKED: USER    Run = 32
DOCKED: USER
DOCKED: USER    Estimated Free Energy of Binding    =  -4.28 kcal/mol  [=(1)+(2)+(3)-(4)]
DOCKED: USER
DOCKED: USER    (1) Final Intermolecular Energy     =  -5.78 kcal/mol
DOCKED: USER        vdW + Hbond + desolv Energy     =  -5.04 kcal/mol
DOCKED: USER        Electrostatic Energy            =  -0.74 kcal/mol
DOCKED: USER        Moving Ligand-Fixed Receptor    =  -5.78 kcal/mol
DOCKED: USER        Moving Ligand-Moving Receptor   =  +0.00 kcal/mol
DOCKED: USER    (2) Final Total Internal Energy     =  -1.96 kcal/mol
DOCKED: USER    (3) Torsional Free Energy           =  +1.49 kcal/mol
DOCKED: USER    (4) Unbound System's Energy         =  -1.96 kcal/mol
DOCKED: USER
DOCKED: USER
DOCKED: REMARK  Name = 
DOCKED: REMARK  7 active torsions:
DOCKED: REMARK  status: ('A' for Active; 'I' for Inactive)
DOCKED: REMARK    1  A    between atoms: C_1  and  C_2
DOCKED: REMARK    2  A    between atoms: C_2  and  C_3
DOCKED: REMARK    3  A    between atoms: CA_6  and  N_7
DOCKED: REMARK    4  A    between atoms: C_8  and  C_10
DOCKED: REMARK    5  A    between atoms: C_10  and  C_11
DOCKED: REMARK    6  A    between atoms: CA_20  and  C_21
DOCKED: REMARK    7  A    between atoms: C_21  and  OXT_23
DOCKED: REMARK                            x       y       z     vdW  Elec       q    Type
DOCKED: REMARK                         _______ _______ _______ _____ _____    ______ ____
DOCKED: USER                              x       y       z     vdW  Elec       q    Type
DOCKED: USER                           _______ _______ _______ _____ _____    ______ ____
DOCKED: ROOT
DOCKED: ATOM      1  C   UNL     1       8.704  31.305  18.469 -0.14 -0.02    +0.025 C  
DOCKED: ATOM      2  C   UNL     1       7.194  31.515  18.604 -0.17 -0.03    +0.042 C  
DOCKED: ATOM      3  C   UNL     1       6.897  32.789  19.406 -0.14 -0.01    +0.025 C  
DOCKED: ATOM      4  S   UNL     1       6.474  30.076  19.544 -0.15 +0.13    -0.127 S  
DOCKED: ATOM      5  C   UNL     1       4.811  30.362  18.817 -0.19 -0.19    +0.165 C  
DOCKED: ATOM      6  CA  UNL     1       4.102  29.198  18.086 -0.19 -0.21    +0.190 C  
DOCKED: ATOM      7  C   UNL     1       4.643  29.877  16.807 -0.26 -0.24    +0.240 C  
DOCKED: ATOM      8  O   UNL     1       4.787  29.617  15.635 -0.65 +0.15    -0.273 OA 
DOCKED: ATOM      9  N   UNL     1       5.102  30.964  17.494 -0.22 +0.26    -0.271 N  
DOCKED: ATOM     10  CA  UNL     1       6.477  31.419  17.247 -0.25 -0.15    +0.201 C  
DOCKED: ENDROOT
DOCKED: BRANCH   6  11
DOCKED: ATOM     11  N   UNL     1       4.569  27.820  18.376 -0.04 +0.37    -0.301 N  
DOCKED: ATOM     12  C   UNL     1       4.149  27.173  19.519 -0.05 -0.16    +0.218 C  
DOCKED: ATOM     13  O   UNL     1       3.379  27.700  20.318 -0.02 +0.17    -0.275 OA 
DOCKED: ATOM     14  H   UNL     1       5.187  27.334  17.735 -0.41 -0.33    +0.150 HD 
DOCKED: BRANCH  12  15
DOCKED: ATOM     15  C   UNL     1       4.709  25.778  19.714 -0.05 -0.08    +0.130 C  
DOCKED: BRANCH  15  16
DOCKED: ATOM     16  C   UNL     1       6.179  25.664  19.388 -0.08 +0.03    -0.039 A  
DOCKED: ATOM     17  C   UNL     1       6.619  24.801  18.376 -0.12 -0.00    +0.004 A  
DOCKED: ATOM     18  C   UNL     1       7.973  24.744  18.033 -0.15 -0.00    +0.000 A  
DOCKED: ATOM     19  C   UNL     1       8.898  25.549  18.696 -0.11 -0.00    +0.000 A  
DOCKED: ATOM     20  C   UNL     1       8.472  26.403  19.710 -0.10 -0.00    +0.000 A  
DOCKED: ATOM     21  C   UNL     1       7.121  26.462  20.055 -0.08 -0.00    +0.004 A  
DOCKED: ENDBRANCH  15  16
DOCKED: ENDBRANCH  12  15
DOCKED: ENDBRANCH   6  11
DOCKED: BRANCH  10  22
DOCKED: ATOM     22  C   UNL     1       6.506  32.678  16.378 -0.24 +0.05    +0.327 C  
DOCKED: ATOM     23  O   UNL     1       7.071  33.718  16.686 -0.43 -0.20    -0.249 OA 
DOCKED: BRANCH  22  24
DOCKED: ATOM     24  OXT UNL     1       5.968  32.502  15.145 -0.65 -0.17    -0.479 OA 
DOCKED: ATOM     25  HXT UNL     1       5.524  31.633  15.048 -0.14 -0.10    +0.295 HD 
DOCKED: ENDBRANCH  22  24
DOCKED: ENDBRANCH  10  22
DOCKED: TORSDOF 5
DOCKED: TER
DOCKED: ENDMDL
________________________________________________________________________________


    FINAL DOCKED STATE:
    ________________________


Run:   33 / 50
Time taken for this run:   0.000s

DOCKED: MODEL        33
DOCKED: USER    Run = 33
DOCKED: USER
DOCKED: USER    Estimated Free Energy of Binding    =  -4.09 kcal/mol  [=(1)+(2)+(3)-(4)]
DOCKED: USER
DOCKED: USER    (1) Final Intermolecular Energy     =  -5.58 kcal/mol
DOCKED: USER        vdW + Hbond + desolv Energy     =  -5.56 kcal/mol
DOCKED: USER        Electrostatic Energy            =  -0.01 kcal/mol
DOCKED: USER        Moving Ligand-Fixed Receptor    =  -5.58 kcal/mol
DOCKED: USER        Moving Ligand-Moving Receptor   =  +0.00 kcal/mol
DOCKED: USER    (2) Final Total Internal Energy     =  -1.30 kcal/mol
DOCKED: USER    (3) Torsional Free Energy           =  +1.49 kcal/mol
DOCKED: USER    (4) Unbound System's Energy         =  -1.30 kcal/mol
DOCKED: USER
DOCKED: USER
DOCKED: REMARK  Name = 
DOCKED: REMARK  7 active torsions:
DOCKED: REMARK  status: ('A' for Active; 'I' for Inactive)
DOCKED: REMARK    1  A    between atoms: C_1  and  C_2
DOCKED: REMARK    2  A    between atoms: C_2  and  C_3
DOCKED: REMARK    3  A    between atoms: CA_6  and  N_7
DOCKED: REMARK    4  A    between atoms: C_8  and  C_10
DOCKED: REMARK    5  A    between atoms: C_10  and  C_11
DOCKED: REMARK    6  A    between atoms: CA_20  and  C_21
DOCKED: REMARK    7  A    between atoms: C_21  and  OXT_23
DOCKED: REMARK                            x       y       z     vdW  Elec       q    Type
DOCKED: REMARK                         _______ _______ _______ _____ _____    ______ ____
DOCKED: USER                              x       y       z     vdW  Elec       q    Type
DOCKED: USER                           _______ _______ _______ _____ _____    ______ ____
DOCKED: ROOT
DOCKED: ATOM      1  C   UNL     1      10.125  19.096  15.268 -0.42 -0.00    +0.025 C  
DOCKED: ATOM      2  C   UNL     1      10.126  20.150  16.376 -0.36 -0.01    +0.042 C  
DOCKED: ATOM      3  C   UNL     1      10.676  19.561  17.680 -0.19 -0.00    +0.025 C  
DOCKED: ATOM      4  S   UNL     1       8.368  20.681  16.695 -0.29 +0.02    -0.127 S  
DOCKED: ATOM      5  C   UNL     1       8.921  22.286  17.398 -0.12 -0.04    +0.165 C  
DOCKED: ATOM      6  CA  UNL     1       8.357  23.598  16.805 -0.21 -0.08    +0.190 C  
DOCKED: ATOM      7  C   UNL     1       9.683  23.628  16.012 -0.27 -0.05    +0.240 C  
DOCKED: ATOM      8  O   UNL     1      10.161  24.212  15.067 -0.35 +0.00    -0.273 OA 
DOCKED: ATOM      9  N   UNL     1      10.195  22.561  16.692 -0.11 +0.04    -0.271 N  
DOCKED: ATOM     10  CA  UNL     1      10.792  21.460  15.922 -0.23 -0.02    +0.201 C  
DOCKED: ENDROOT
DOCKED: BRANCH   6  11
DOCKED: ATOM     11  N   UNL     1       7.098  23.513  16.026 -0.15 +0.15    -0.301 N  
DOCKED: ATOM     12  C   UNL     1       5.959  24.144  16.478 -0.14 -0.15    +0.218 C  
DOCKED: ATOM     13  O   UNL     1       5.948  24.798  17.519 -0.14 +0.26    -0.275 OA 
DOCKED: ATOM     14  H   UNL     1       7.062  23.005  15.148 -0.24 -0.09    +0.150 HD 
DOCKED: BRANCH  12  15
DOCKED: ATOM     15  C   UNL     1       4.732  23.969  15.606 -0.27 -0.07    +0.130 C  
DOCKED: BRANCH  15  16
DOCKED: ATOM     16  C   UNL     1       4.308  22.529  15.439 -0.26 +0.01    -0.039 A  
DOCKED: ATOM     17  C   UNL     1       3.656  22.109  14.273 -0.33 -0.00    +0.004 A  
DOCKED: ATOM     18  C   UNL     1       3.321  20.765  14.093 -0.33 -0.00    +0.000 A  
DOCKED: ATOM     19  C   UNL     1       3.636  19.827  15.076 -0.16 -0.00    +0.000 A  
DOCKED: ATOM     20  C   UNL     1       4.275  20.236  16.243 -0.15 -0.00    +0.000 A  
DOCKED: ATOM     21  C   UNL     1       4.611  21.578  16.426 -0.15 -0.00    +0.004 A  
DOCKED: ENDBRANCH  15  16
DOCKED: ENDBRANCH  12  15
DOCKED: ENDBRANCH   6  11
DOCKED: BRANCH  10  22
DOCKED: ATOM     22  C   UNL     1      12.320  21.495  15.981 -0.26 -0.02    +0.327 C  
DOCKED: ATOM     23  O   UNL     1      13.055  21.082  15.096 -0.43 +0.02    -0.249 OA 
DOCKED: BRANCH  22  24
DOCKED: ATOM     24  OXT UNL     1      12.809  22.169  17.051 -0.10 +0.03    -0.479 OA 
DOCKED: ATOM     25  HXT UNL     1      12.102  22.497  17.647 +0.11 -0.03    +0.295 HD 
DOCKED: ENDBRANCH  22  24
DOCKED: ENDBRANCH  10  22
DOCKED: TORSDOF 5
DOCKED: TER
DOCKED: ENDMDL
________________________________________________________________________________


    FINAL DOCKED STATE:
    ________________________


Run:   34 / 50
Time taken for this run:   0.000s

DOCKED: MODEL        34
DOCKED: USER    Run = 34
DOCKED: USER
DOCKED: USER    Estimated Free Energy of Binding    =  -3.41 kcal/mol  [=(1)+(2)+(3)-(4)]
DOCKED: USER
DOCKED: USER    (1) Final Intermolecular Energy     =  -4.90 kcal/mol
DOCKED: USER        vdW + Hbond + desolv Energy     =  -4.50 kcal/mol
DOCKED: USER        Electrostatic Energy            =  -0.40 kcal/mol
DOCKED: USER        Moving Ligand-Fixed Receptor    =  -4.90 kcal/mol
DOCKED: USER        Moving Ligand-Moving Receptor   =  +0.00 kcal/mol
DOCKED: USER    (2) Final Total Internal Energy     =  -1.80 kcal/mol
DOCKED: USER    (3) Torsional Free Energy           =  +1.49 kcal/mol
DOCKED: USER    (4) Unbound System's Energy         =  -1.80 kcal/mol
DOCKED: USER
DOCKED: USER
DOCKED: REMARK  Name = 
DOCKED: REMARK  7 active torsions:
DOCKED: REMARK  status: ('A' for Active; 'I' for Inactive)
DOCKED: REMARK    1  A    between atoms: C_1  and  C_2
DOCKED: REMARK    2  A    between atoms: C_2  and  C_3
DOCKED: REMARK    3  A    between atoms: CA_6  and  N_7
DOCKED: REMARK    4  A    between atoms: C_8  and  C_10
DOCKED: REMARK    5  A    between atoms: C_10  and  C_11
DOCKED: REMARK    6  A    between atoms: CA_20  and  C_21
DOCKED: REMARK    7  A    between atoms: C_21  and  OXT_23
DOCKED: REMARK                            x       y       z     vdW  Elec       q    Type
DOCKED: REMARK                         _______ _______ _______ _____ _____    ______ ____
DOCKED: USER                              x       y       z     vdW  Elec       q    Type
DOCKED: USER                           _______ _______ _______ _____ _____    ______ ____
DOCKED: ROOT
DOCKED: ATOM      1  C   UNL     1      19.741  29.511   9.619 -0.45 -0.01    +0.025 C  
DOCKED: ATOM      2  C   UNL     1      20.249  30.751  10.358 -0.33 -0.01    +0.042 C  
DOCKED: ATOM      3  C   UNL     1      21.775  30.702  10.507 -0.24 -0.00    +0.025 C  
DOCKED: ATOM      4  S   UNL     1      19.516  30.765  12.071 -0.26 +0.07    -0.127 S  
DOCKED: ATOM      5  C   UNL     1      19.740  32.583  12.213 -0.06 -0.07    +0.165 C  
DOCKED: ATOM      6  CA  UNL     1      18.517  33.465  12.556 -0.06 -0.12    +0.190 C  
DOCKED: ATOM      7  C   UNL     1      18.462  33.713  11.031 -0.07 -0.15    +0.240 C  
DOCKED: ATOM      8  O   UNL     1      17.696  34.167  10.215 -0.10 +0.17    -0.273 OA 
DOCKED: ATOM      9  N   UNL     1      19.642  33.061  10.813 -0.05 +0.10    -0.271 N  
DOCKED: ATOM     10  CA  UNL     1      19.696  32.050   9.748 -0.19 -0.04    +0.201 C  
DOCKED: ENDROOT
DOCKED: BRANCH   6  11
DOCKED: ATOM     11  N   UNL     1      17.347  32.802  13.182 -0.05 +0.32    -0.301 N  
DOCKED: ATOM     12  C   UNL     1      17.279  32.664  14.551 -0.08 -0.12    +0.218 C  
DOCKED: ATOM     13  O   UNL     1      18.164  33.088  15.292 -0.01 +0.10    -0.275 OA 
DOCKED: ATOM     14  H   UNL     1      16.580  32.456  12.614 -0.40 -0.34    +0.150 HD 
DOCKED: BRANCH  12  15
DOCKED: ATOM     15  C   UNL     1      16.044  31.953  15.069 -0.17 -0.05    +0.130 C  
DOCKED: BRANCH  15  16
DOCKED: ATOM     16  C   UNL     1      16.306  30.537  15.522 -0.16 +0.00    -0.039 A  
DOCKED: ATOM     17  C   UNL     1      17.205  29.720  14.823 -0.23 -0.00    +0.004 A  
DOCKED: ATOM     18  C   UNL     1      17.495  28.432  15.280 -0.23 +0.00    +0.000 A  
DOCKED: ATOM     19  C   UNL     1      16.891  27.948  16.440 -0.21 +0.00    +0.000 A  
DOCKED: ATOM     20  C   UNL     1      15.989  28.748  17.137 -0.14 +0.00    +0.000 A  
DOCKED: ATOM     21  C   UNL     1      15.697  30.036  16.683 -0.10 +0.00    +0.004 A  
DOCKED: ENDBRANCH  15  16
DOCKED: ENDBRANCH  12  15
DOCKED: ENDBRANCH   6  11
DOCKED: BRANCH  10  22
DOCKED: ATOM     22  C   UNL     1      20.422  32.575   8.508 -0.03 +0.13    +0.327 C  
DOCKED: ATOM     23  O   UNL     1      21.185  31.912   7.821 -0.46 -0.13    -0.249 OA 
DOCKED: BRANCH  22  24
DOCKED: ATOM     24  OXT UNL     1      20.033  33.819   8.135 -0.50 -0.29    -0.479 OA 
DOCKED: ATOM     25  HXT UNL     1      19.335  34.189   8.719 +0.07 +0.04    +0.295 HD 
DOCKED: ENDBRANCH  22  24
DOCKED: ENDBRANCH  10  22
DOCKED: TORSDOF 5
DOCKED: TER
DOCKED: ENDMDL
________________________________________________________________________________


    FINAL DOCKED STATE:
    ________________________


Run:   35 / 50
Time taken for this run:   0.000s

DOCKED: MODEL        35
DOCKED: USER    Run = 35
DOCKED: USER
DOCKED: USER    Estimated Free Energy of Binding    =  -4.13 kcal/mol  [=(1)+(2)+(3)-(4)]
DOCKED: USER
DOCKED: USER    (1) Final Intermolecular Energy     =  -5.62 kcal/mol
DOCKED: USER        vdW + Hbond + desolv Energy     =  -5.00 kcal/mol
DOCKED: USER        Electrostatic Energy            =  -0.61 kcal/mol
DOCKED: USER        Moving Ligand-Fixed Receptor    =  -5.62 kcal/mol
DOCKED: USER        Moving Ligand-Moving Receptor   =  +0.00 kcal/mol
DOCKED: USER    (2) Final Total Internal Energy     =  -2.00 kcal/mol
DOCKED: USER    (3) Torsional Free Energy           =  +1.49 kcal/mol
DOCKED: USER    (4) Unbound System's Energy         =  -2.00 kcal/mol
DOCKED: USER
DOCKED: USER
DOCKED: REMARK  Name = 
DOCKED: REMARK  7 active torsions:
DOCKED: REMARK  status: ('A' for Active; 'I' for Inactive)
DOCKED: REMARK    1  A    between atoms: C_1  and  C_2
DOCKED: REMARK    2  A    between atoms: C_2  and  C_3
DOCKED: REMARK    3  A    between atoms: CA_6  and  N_7
DOCKED: REMARK    4  A    between atoms: C_8  and  C_10
DOCKED: REMARK    5  A    between atoms: C_10  and  C_11
DOCKED: REMARK    6  A    between atoms: CA_20  and  C_21
DOCKED: REMARK    7  A    between atoms: C_21  and  OXT_23
DOCKED: REMARK                            x       y       z     vdW  Elec       q    Type
DOCKED: REMARK                         _______ _______ _______ _____ _____    ______ ____
DOCKED: USER                              x       y       z     vdW  Elec       q    Type
DOCKED: USER                           _______ _______ _______ _____ _____    ______ ____
DOCKED: ROOT
DOCKED: ATOM      1  C   UNL     1       8.428  31.366  18.912 -0.12 -0.02    +0.025 C  
DOCKED: ATOM      2  C   UNL     1       6.905  31.498  18.846 -0.17 -0.03    +0.042 C  
DOCKED: ATOM      3  C   UNL     1       6.442  32.765  19.575 -0.15 -0.02    +0.025 C  
DOCKED: ATOM      4  S   UNL     1       6.142  30.036  19.714 -0.15 +0.12    -0.127 S  
DOCKED: ATOM      5  C   UNL     1       4.575  30.224  18.773 -0.19 -0.20    +0.165 C  
DOCKED: ATOM      6  CA  UNL     1       4.028  29.014  17.980 -0.19 -0.20    +0.190 C  
DOCKED: ATOM      7  C   UNL     1       4.696  29.701  16.768 -0.23 -0.26    +0.240 C  
DOCKED: ATOM      8  O   UNL     1       5.005  29.432  15.631 -0.66 +0.22    -0.273 OA 
DOCKED: ATOM      9  N   UNL     1       5.006  30.821  17.486 -0.22 +0.27    -0.271 N  
DOCKED: ATOM     10  CA  UNL     1       6.377  31.345  17.410 -0.24 -0.16    +0.201 C  
DOCKED: ENDROOT
DOCKED: BRANCH   6  11
DOCKED: ATOM     11  N   UNL     1       4.522  27.666  18.358 -0.04 +0.36    -0.301 N  
DOCKED: ATOM     12  C   UNL     1       4.099  27.077  19.530 -0.05 -0.16    +0.218 C  
DOCKED: ATOM     13  O   UNL     1       3.304  27.631  20.286 -0.02 +0.17    -0.275 OA 
DOCKED: ATOM     14  H   UNL     1       5.161  27.159  17.755 -0.40 -0.31    +0.150 HD 
DOCKED: BRANCH  12  15
DOCKED: ATOM     15  C   UNL     1       4.688  25.709  19.814 -0.04 -0.08    +0.130 C  
DOCKED: BRANCH  15  16
DOCKED: ATOM     16  C   UNL     1       6.146  25.588  19.442 -0.08 +0.03    -0.039 A  
DOCKED: ATOM     17  C   UNL     1       6.593  24.521  18.651 -0.11 -0.00    +0.004 A  
DOCKED: ATOM     18  C   UNL     1       7.930  24.445  18.254 -0.15 -0.00    +0.000 A  
DOCKED: ATOM     19  C   UNL     1       8.833  25.433  18.641 -0.12 -0.00    +0.000 A  
DOCKED: ATOM     20  C   UNL     1       8.402  26.493  19.435 -0.09 -0.00    +0.000 A  
DOCKED: ATOM     21  C   UNL     1       7.066  26.572  19.833 -0.09 -0.00    +0.004 A  
DOCKED: ENDBRANCH  15  16
DOCKED: ENDBRANCH  12  15
DOCKED: ENDBRANCH   6  11
DOCKED: BRANCH  10  22
DOCKED: ATOM     22  C   UNL     1       6.455  32.591  16.525 -0.25 +0.01    +0.327 C  
DOCKED: ATOM     23  O   UNL     1       7.004  33.634  16.848 -0.50 -0.16    -0.249 OA 
DOCKED: BRANCH  22  24
DOCKED: ATOM     24  OXT UNL     1       5.985  32.398  15.268 -0.65 -0.11    -0.479 OA 
DOCKED: ATOM     25  HXT UNL     1       5.620  31.496  15.135 -0.12 -0.10    +0.295 HD 
DOCKED: ENDBRANCH  22  24
DOCKED: ENDBRANCH  10  22
DOCKED: TORSDOF 5
DOCKED: TER
DOCKED: ENDMDL
________________________________________________________________________________


    FINAL DOCKED STATE:
    ________________________


Run:   36 / 50
Time taken for this run:   0.000s

DOCKED: MODEL        36
DOCKED: USER    Run = 36
DOCKED: USER
DOCKED: USER    Estimated Free Energy of Binding    =  -4.46 kcal/mol  [=(1)+(2)+(3)-(4)]
DOCKED: USER
DOCKED: USER    (1) Final Intermolecular Energy     =  -5.95 kcal/mol
DOCKED: USER        vdW + Hbond + desolv Energy     =  -5.38 kcal/mol
DOCKED: USER        Electrostatic Energy            =  -0.57 kcal/mol
DOCKED: USER        Moving Ligand-Fixed Receptor    =  -5.95 kcal/mol
DOCKED: USER        Moving Ligand-Moving Receptor   =  +0.00 kcal/mol
DOCKED: USER    (2) Final Total Internal Energy     =  -1.33 kcal/mol
DOCKED: USER    (3) Torsional Free Energy           =  +1.49 kcal/mol
DOCKED: USER    (4) Unbound System's Energy         =  -1.33 kcal/mol
DOCKED: USER
DOCKED: USER
DOCKED: REMARK  Name = 
DOCKED: REMARK  7 active torsions:
DOCKED: REMARK  status: ('A' for Active; 'I' for Inactive)
DOCKED: REMARK    1  A    between atoms: C_1  and  C_2
DOCKED: REMARK    2  A    between atoms: C_2  and  C_3
DOCKED: REMARK    3  A    between atoms: CA_6  and  N_7
DOCKED: REMARK    4  A    between atoms: C_8  and  C_10
DOCKED: REMARK    5  A    between atoms: C_10  and  C_11
DOCKED: REMARK    6  A    between atoms: CA_20  and  C_21
DOCKED: REMARK    7  A    between atoms: C_21  and  OXT_23
DOCKED: REMARK                            x       y       z     vdW  Elec       q    Type
DOCKED: REMARK                         _______ _______ _______ _____ _____    ______ ____
DOCKED: USER                              x       y       z     vdW  Elec       q    Type
DOCKED: USER                           _______ _______ _______ _____ _____    ______ ____
DOCKED: ROOT
DOCKED: ATOM      1  C   UNL     1       8.764  31.420  17.465 -0.20 -0.02    +0.025 C  
DOCKED: ATOM      2  C   UNL     1       7.278  31.667  17.732 -0.24 -0.03    +0.042 C  
DOCKED: ATOM      3  C   UNL     1       7.050  33.101  18.224 -0.22 -0.01    +0.025 C  
DOCKED: ATOM      4  S   UNL     1       6.715  30.511  19.082 -0.18 +0.13    -0.127 S  
DOCKED: ATOM      5  C   UNL     1       4.968  30.618  18.521 -0.21 -0.19    +0.165 C  
DOCKED: ATOM      6  CA  UNL     1       4.204  29.314  18.196 -0.19 -0.21    +0.190 C  
DOCKED: ATOM      7  C   UNL     1       4.567  29.650  16.731 -0.24 -0.24    +0.240 C  
DOCKED: ATOM      8  O   UNL     1       4.572  29.105  15.652 -0.76 +0.21    -0.273 OA 
DOCKED: ATOM      9  N   UNL     1       5.079  30.870  17.065 -0.25 +0.24    -0.271 N  
DOCKED: ATOM     10  CA  UNL     1       6.402  31.241  16.542 -0.32 -0.14    +0.201 C  
DOCKED: ENDROOT
DOCKED: BRANCH   6  11
DOCKED: ATOM     11  N   UNL     1       4.737  28.048  18.757 -0.06 +0.35    -0.301 N  
DOCKED: ATOM     12  C   UNL     1       4.242  27.555  19.945 -0.04 -0.16    +0.218 C  
DOCKED: ATOM     13  O   UNL     1       3.350  28.129  20.566 -0.02 +0.18    -0.275 OA 
DOCKED: ATOM     14  H   UNL     1       5.458  27.526  18.270 -0.40 -0.29    +0.150 HD 
DOCKED: BRANCH  12  15
DOCKED: ATOM     15  C   UNL     1       4.879  26.266  20.425 -0.03 -0.08    +0.130 C  
DOCKED: BRANCH  15  16
DOCKED: ATOM     16  C   UNL     1       6.127  25.888  19.665 -0.08 +0.03    -0.039 A  
DOCKED: ATOM     17  C   UNL     1       7.369  26.431  20.018 -0.09 -0.00    +0.004 A  
DOCKED: ATOM     18  C   UNL     1       8.532  26.032  19.355 -0.10 -0.00    +0.000 A  
DOCKED: ATOM     19  C   UNL     1       8.466  25.085  18.334 -0.13 -0.00    +0.000 A  
DOCKED: ATOM     20  C   UNL     1       7.236  24.545  17.968 -0.15 -0.00    +0.000 A  
DOCKED: ATOM     21  C   UNL     1       6.072  24.942  18.629 -0.11 -0.00    +0.004 A  
DOCKED: ENDBRANCH  15  16
DOCKED: ENDBRANCH  12  15
DOCKED: ENDBRANCH   6  11
DOCKED: BRANCH  10  22
DOCKED: ATOM     22  C   UNL     1       6.292  32.244  15.392 -0.23 +0.05    +0.327 C  
DOCKED: ATOM     23  O   UNL     1       7.041  32.272  14.426 -0.54 -0.15    -0.249 OA 
DOCKED: BRANCH  22  24
DOCKED: ATOM     24  OXT UNL     1       5.186  33.027  15.454 -0.50 -0.16    -0.479 OA 
DOCKED: ATOM     25  HXT UNL     1       4.363  32.536  15.239 -0.11 -0.09    +0.295 HD 
DOCKED: ENDBRANCH  22  24
DOCKED: ENDBRANCH  10  22
DOCKED: TORSDOF 5
DOCKED: TER
DOCKED: ENDMDL
________________________________________________________________________________


    FINAL DOCKED STATE:
    ________________________


Run:   37 / 50
Time taken for this run:   0.000s

DOCKED: MODEL        37
DOCKED: USER    Run = 37
DOCKED: USER
DOCKED: USER    Estimated Free Energy of Binding    =  -3.46 kcal/mol  [=(1)+(2)+(3)-(4)]
DOCKED: USER
DOCKED: USER    (1) Final Intermolecular Energy     =  -4.95 kcal/mol
DOCKED: USER        vdW + Hbond + desolv Energy     =  -4.75 kcal/mol
DOCKED: USER        Electrostatic Energy            =  -0.19 kcal/mol
DOCKED: USER        Moving Ligand-Fixed Receptor    =  -4.95 kcal/mol
DOCKED: USER        Moving Ligand-Moving Receptor   =  +0.00 kcal/mol
DOCKED: USER    (2) Final Total Internal Energy     =  -1.77 kcal/mol
DOCKED: USER    (3) Torsional Free Energy           =  +1.49 kcal/mol
DOCKED: USER    (4) Unbound System's Energy         =  -1.77 kcal/mol
DOCKED: USER
DOCKED: USER
DOCKED: REMARK  Name = 
DOCKED: REMARK  7 active torsions:
DOCKED: REMARK  status: ('A' for Active; 'I' for Inactive)
DOCKED: REMARK    1  A    between atoms: C_1  and  C_2
DOCKED: REMARK    2  A    between atoms: C_2  and  C_3
DOCKED: REMARK    3  A    between atoms: CA_6  and  N_7
DOCKED: REMARK    4  A    between atoms: C_8  and  C_10
DOCKED: REMARK    5  A    between atoms: C_10  and  C_11
DOCKED: REMARK    6  A    between atoms: CA_20  and  C_21
DOCKED: REMARK    7  A    between atoms: C_21  and  OXT_23
DOCKED: REMARK                            x       y       z     vdW  Elec       q    Type
DOCKED: REMARK                         _______ _______ _______ _____ _____    ______ ____
DOCKED: USER                              x       y       z     vdW  Elec       q    Type
DOCKED: USER                           _______ _______ _______ _____ _____    ______ ____
DOCKED: ROOT
DOCKED: ATOM      1  C   UNL     1      14.667  23.605  17.514 -0.22 -0.00    +0.025 C  
DOCKED: ATOM      2  C   UNL     1      13.814  24.405  18.500 -0.13 -0.00    +0.042 C  
DOCKED: ATOM      3  C   UNL     1      14.460  24.414  19.891 -0.04 -0.00    +0.025 C  
DOCKED: ATOM      4  S   UNL     1      12.151  23.579  18.656 -0.11 +0.02    -0.127 S  
DOCKED: ATOM      5  C   UNL     1      11.363  25.142  19.212 -0.06 -0.04    +0.165 C  
DOCKED: ATOM      6  CA  UNL     1      10.127  25.672  18.448 -0.12 -0.11    +0.190 C  
DOCKED: ATOM      7  C   UNL     1      11.151  26.584  17.735 -0.17 -0.08    +0.240 C  
DOCKED: ATOM      8  O   UNL     1      11.203  27.300  16.762 -0.61 -0.03    -0.273 OA 
DOCKED: ATOM      9  N   UNL     1      12.171  26.198  18.556 -0.08 +0.04    -0.271 N  
DOCKED: ATOM     10  CA  UNL     1      13.445  25.792  17.947 -0.13 +0.02    +0.201 C  
DOCKED: ENDROOT
DOCKED: BRANCH   6  11
DOCKED: ATOM     11  N   UNL     1       9.373  24.707  17.610 -0.12 +0.17    -0.301 N  
DOCKED: ATOM     12  C   UNL     1       9.903  24.263  16.417 -0.22 -0.05    +0.218 C  
DOCKED: ATOM     13  O   UNL     1      11.005  24.634  16.018 -0.25 -0.03    -0.275 OA 
DOCKED: ATOM     14  H   UNL     1       8.470  24.354  17.908 +0.03 -0.09    +0.150 HD 
DOCKED: BRANCH  12  15
DOCKED: ATOM     15  C   UNL     1       9.031  23.295  15.643 -0.32 -0.03    +0.130 C  
DOCKED: BRANCH  15  16
DOCKED: ATOM     16  C   UNL     1       9.462  21.854  15.773 -0.26 +0.01    -0.039 A  
DOCKED: ATOM     17  C   UNL     1       8.527  20.817  15.655 -0.32 -0.00    +0.004 A  
DOCKED: ATOM     18  C   UNL     1       8.936  19.483  15.712 -0.36 -0.00    +0.000 A  
DOCKED: ATOM     19  C   UNL     1      10.284  19.171  15.887 -0.42 -0.00    +0.000 A  
DOCKED: ATOM     20  C   UNL     1      11.220  20.194  16.015 -0.38 -0.00    +0.000 A  
DOCKED: ATOM     21  C   UNL     1      10.814  21.528  15.959 -0.30 -0.00    +0.004 A  
DOCKED: ENDBRANCH  15  16
DOCKED: ENDBRANCH  12  15
DOCKED: ENDBRANCH   6  11
DOCKED: BRANCH  10  22
DOCKED: ATOM     22  C   UNL     1      14.511  26.881  18.091 -0.09 +0.03    +0.327 C  
DOCKED: ATOM     23  O   UNL     1      15.704  26.665  18.237 -0.07 -0.00    -0.249 OA 
DOCKED: BRANCH  22  24
DOCKED: ATOM     24  OXT UNL     1      14.037  28.136  17.892 -0.06 -0.08    -0.479 OA 
DOCKED: ATOM     25  HXT UNL     1      13.110  28.144  17.571 +0.06 +0.10    +0.295 HD 
DOCKED: ENDBRANCH  22  24
DOCKED: ENDBRANCH  10  22
DOCKED: TORSDOF 5
DOCKED: TER
DOCKED: ENDMDL
________________________________________________________________________________


    FINAL DOCKED STATE:
    ________________________


Run:   38 / 50
Time taken for this run:   0.000s

DOCKED: MODEL        38
DOCKED: USER    Run = 38
DOCKED: USER
DOCKED: USER    Estimated Free Energy of Binding    =  -3.39 kcal/mol  [=(1)+(2)+(3)-(4)]
DOCKED: USER
DOCKED: USER    (1) Final Intermolecular Energy     =  -4.89 kcal/mol
DOCKED: USER        vdW + Hbond + desolv Energy     =  -4.91 kcal/mol
DOCKED: USER        Electrostatic Energy            =  +0.03 kcal/mol
DOCKED: USER        Moving Ligand-Fixed Receptor    =  -4.89 kcal/mol
DOCKED: USER        Moving Ligand-Moving Receptor   =  +0.00 kcal/mol
DOCKED: USER    (2) Final Total Internal Energy     =  -1.87 kcal/mol
DOCKED: USER    (3) Torsional Free Energy           =  +1.49 kcal/mol
DOCKED: USER    (4) Unbound System's Energy         =  -1.87 kcal/mol
DOCKED: USER
DOCKED: USER
DOCKED: REMARK  Name = 
DOCKED: REMARK  7 active torsions:
DOCKED: REMARK  status: ('A' for Active; 'I' for Inactive)
DOCKED: REMARK    1  A    between atoms: C_1  and  C_2
DOCKED: REMARK    2  A    between atoms: C_2  and  C_3
DOCKED: REMARK    3  A    between atoms: CA_6  and  N_7
DOCKED: REMARK    4  A    between atoms: C_8  and  C_10
DOCKED: REMARK    5  A    between atoms: C_10  and  C_11
DOCKED: REMARK    6  A    between atoms: CA_20  and  C_21
DOCKED: REMARK    7  A    between atoms: C_21  and  OXT_23
DOCKED: REMARK                            x       y       z     vdW  Elec       q    Type
DOCKED: REMARK                         _______ _______ _______ _____ _____    ______ ____
DOCKED: USER                              x       y       z     vdW  Elec       q    Type
DOCKED: USER                           _______ _______ _______ _____ _____    ______ ____
DOCKED: ROOT
DOCKED: ATOM      1  C   UNL     1      10.816  25.616  16.759 -0.23 -0.00    +0.025 C  
DOCKED: ATOM      2  C   UNL     1      10.941  24.255  17.447 -0.21 -0.01    +0.042 C  
DOCKED: ATOM      3  C   UNL     1       9.995  24.172  18.652 -0.11 -0.01    +0.025 C  
DOCKED: ATOM      4  S   UNL     1      12.683  24.067  18.084 -0.18 +0.01    -0.127 S  
DOCKED: ATOM      5  C   UNL     1      12.546  22.235  18.079 -0.15 -0.02    +0.165 C  
DOCKED: ATOM      6  CA  UNL     1      13.599  21.407  17.307 -0.22 -0.03    +0.190 C  
DOCKED: ATOM      7  C   UNL     1      12.526  21.368  16.194 -0.30 -0.02    +0.240 C  
DOCKED: ATOM      8  O   UNL     1      12.447  21.083  15.022 -0.39 +0.01    -0.273 OA 
DOCKED: ATOM      9  N   UNL     1      11.583  21.955  16.987 -0.12 +0.03    -0.271 N  
DOCKED: ATOM     10  CA  UNL     1      10.825  23.092  16.448 -0.23 -0.02    +0.201 C  
DOCKED: ENDROOT
DOCKED: BRANCH   6  11
DOCKED: ATOM     11  N   UNL     1      14.890  22.065  16.987 -0.22 +0.07    -0.301 N  
DOCKED: ATOM     12  C   UNL     1      15.626  22.668  17.984 -0.19 -0.04    +0.218 C  
DOCKED: ATOM     13  O   UNL     1      15.252  22.673  19.155 -0.10 +0.03    -0.275 OA 
DOCKED: ATOM     14  H   UNL     1      15.251  22.067  16.039 -0.23 -0.03    +0.150 HD 
DOCKED: BRANCH  12  15
DOCKED: ATOM     15  C   UNL     1      16.915  23.322  17.530 -0.23 -0.02    +0.130 C  
DOCKED: BRANCH  15  16
DOCKED: ATOM     16  C   UNL     1      16.760  24.779  17.164 -0.26 +0.00    -0.039 A  
DOCKED: ATOM     17  C   UNL     1      17.718  25.420  16.368 -0.31 -0.00    +0.004 A  
DOCKED: ATOM     18  C   UNL     1      17.541  26.750  15.978 -0.27 +0.00    +0.000 A  
DOCKED: ATOM     19  C   UNL     1      16.405  27.451  16.379 -0.24 +0.00    +0.000 A  
DOCKED: ATOM     20  C   UNL     1      15.451  26.827  17.178 -0.18 +0.00    +0.000 A  
DOCKED: ATOM     21  C   UNL     1      15.625  25.498  17.569 -0.17 +0.00    +0.004 A  
DOCKED: ENDBRANCH  15  16
DOCKED: ENDBRANCH  12  15
DOCKED: ENDBRANCH   6  11
DOCKED: BRANCH  10  22
DOCKED: ATOM     22  C   UNL     1       9.404  22.685  16.050 -0.21 -0.07    +0.327 C  
DOCKED: ATOM     23  O   UNL     1       8.435  23.428  16.091 -0.25 +0.09    -0.249 OA 
DOCKED: BRANCH  22  24
DOCKED: ATOM     24  OXT UNL     1       9.327  21.449  15.497 -0.09 +0.07    -0.479 OA 
DOCKED: ATOM     25  HXT UNL     1      10.210  21.055  15.325 +0.18 -0.02    +0.295 HD 
DOCKED: ENDBRANCH  22  24
DOCKED: ENDBRANCH  10  22
DOCKED: TORSDOF 5
DOCKED: TER
DOCKED: ENDMDL
________________________________________________________________________________


    FINAL DOCKED STATE:
    ________________________


Run:   39 / 50
Time taken for this run:   0.000s

DOCKED: MODEL        39
DOCKED: USER    Run = 39
DOCKED: USER
DOCKED: USER    Estimated Free Energy of Binding    =  -3.65 kcal/mol  [=(1)+(2)+(3)-(4)]
DOCKED: USER
DOCKED: USER    (1) Final Intermolecular Energy     =  -5.14 kcal/mol
DOCKED: USER        vdW + Hbond + desolv Energy     =  -5.19 kcal/mol
DOCKED: USER        Electrostatic Energy            =  +0.04 kcal/mol
DOCKED: USER        Moving Ligand-Fixed Receptor    =  -5.14 kcal/mol
DOCKED: USER        Moving Ligand-Moving Receptor   =  +0.00 kcal/mol
DOCKED: USER    (2) Final Total Internal Energy     =  -1.71 kcal/mol
DOCKED: USER    (3) Torsional Free Energy           =  +1.49 kcal/mol
DOCKED: USER    (4) Unbound System's Energy         =  -1.71 kcal/mol
DOCKED: USER
DOCKED: USER
DOCKED: REMARK  Name = 
DOCKED: REMARK  7 active torsions:
DOCKED: REMARK  status: ('A' for Active; 'I' for Inactive)
DOCKED: REMARK    1  A    between atoms: C_1  and  C_2
DOCKED: REMARK    2  A    between atoms: C_2  and  C_3
DOCKED: REMARK    3  A    between atoms: CA_6  and  N_7
DOCKED: REMARK    4  A    between atoms: C_8  and  C_10
DOCKED: REMARK    5  A    between atoms: C_10  and  C_11
DOCKED: REMARK    6  A    between atoms: CA_20  and  C_21
DOCKED: REMARK    7  A    between atoms: C_21  and  OXT_23
DOCKED: REMARK                            x       y       z     vdW  Elec       q    Type
DOCKED: REMARK                         _______ _______ _______ _____ _____    ______ ____
DOCKED: USER                              x       y       z     vdW  Elec       q    Type
DOCKED: USER                           _______ _______ _______ _____ _____    ______ ____
DOCKED: ROOT
DOCKED: ATOM      1  C   UNL     1      10.416  19.261  17.779 -0.21 -0.00    +0.025 C  
DOCKED: ATOM      2  C   UNL     1      10.309  20.161  16.546 -0.34 -0.01    +0.042 C  
DOCKED: ATOM      3  C   UNL     1      10.319  19.321  15.263 -0.46 -0.00    +0.025 C  
DOCKED: ATOM      4  S   UNL     1      11.796  21.284  16.496 -0.39 +0.01    -0.127 S  
DOCKED: ATOM      5  C   UNL     1      10.901  22.515  15.467 -0.20 +0.00    +0.165 C  
DOCKED: ATOM      6  CA  UNL     1      10.818  23.980  15.955 -0.27 +0.00    +0.190 C  
DOCKED: ATOM      7  C   UNL     1       9.418  23.570  16.464 -0.22 -0.07    +0.240 C  
DOCKED: ATOM      8  O   UNL     1       8.560  23.998  17.200 -0.16 +0.14    -0.273 OA 
DOCKED: ATOM      9  N   UNL     1       9.483  22.345  15.865 -0.20 +0.05    -0.271 N  
DOCKED: ATOM     10  CA  UNL     1       9.143  21.157  16.661 -0.19 -0.04    +0.201 C  
DOCKED: ENDROOT
DOCKED: BRANCH   6  11
DOCKED: ATOM     11  N   UNL     1      11.809  24.424  16.967 -0.12 -0.02    -0.301 N  
DOCKED: ATOM     12  C   UNL     1      11.902  25.756  17.308 -0.10 +0.03    +0.218 C  
DOCKED: ATOM     13  O   UNL     1      11.174  26.609  16.804 -0.60 -0.05    -0.275 OA 
DOCKED: ATOM     14  H   UNL     1      12.417  23.755  17.427 +0.05 -0.00    +0.150 HD 
DOCKED: BRANCH  12  15
DOCKED: ATOM     15  C   UNL     1      12.964  26.087  18.338 -0.13 -0.00    +0.130 C  
DOCKED: BRANCH  15  16
DOCKED: ATOM     16  C   UNL     1      14.346  25.616  17.955 -0.14 -0.00    -0.039 A  
DOCKED: ATOM     17  C   UNL     1      14.705  24.269  18.098 -0.17 -0.00    +0.004 A  
DOCKED: ATOM     18  C   UNL     1      15.963  23.823  17.684 -0.26 -0.00    +0.000 A  
DOCKED: ATOM     19  C   UNL     1      16.873  24.717  17.123 -0.28 -0.00    +0.000 A  
DOCKED: ATOM     20  C   UNL     1      16.530  26.060  16.985 -0.24 +0.00    +0.000 A  
DOCKED: ATOM     21  C   UNL     1      15.274  26.509  17.397 -0.17 +0.00    +0.004 A  
DOCKED: ENDBRANCH  15  16
DOCKED: ENDBRANCH  12  15
DOCKED: ENDBRANCH   6  11
DOCKED: BRANCH  10  22
DOCKED: ATOM     22  C   UNL     1       7.756  20.618  16.304 -0.16 -0.06    +0.327 C  
DOCKED: ATOM     23  O   UNL     1       7.466  19.431  16.263 -0.21 +0.03    -0.249 OA 
DOCKED: BRANCH  22  24
DOCKED: ATOM     24  OXT UNL     1       6.813  21.583  16.174 -0.10 +0.14    -0.479 OA 
DOCKED: ATOM     25  HXT UNL     1       7.123  22.460  16.489 +0.10 -0.11    +0.295 HD 
DOCKED: ENDBRANCH  22  24
DOCKED: ENDBRANCH  10  22
DOCKED: TORSDOF 5
DOCKED: TER
DOCKED: ENDMDL
________________________________________________________________________________


    FINAL DOCKED STATE:
    ________________________


Run:   40 / 50
Time taken for this run:   0.000s

DOCKED: MODEL        40
DOCKED: USER    Run = 40
DOCKED: USER
DOCKED: USER    Estimated Free Energy of Binding    =  -4.54 kcal/mol  [=(1)+(2)+(3)-(4)]
DOCKED: USER
DOCKED: USER    (1) Final Intermolecular Energy     =  -6.03 kcal/mol
DOCKED: USER        vdW + Hbond + desolv Energy     =  -5.23 kcal/mol
DOCKED: USER        Electrostatic Energy            =  -0.80 kcal/mol
DOCKED: USER        Moving Ligand-Fixed Receptor    =  -6.03 kcal/mol
DOCKED: USER        Moving Ligand-Moving Receptor   =  +0.00 kcal/mol
DOCKED: USER    (2) Final Total Internal Energy     =  -1.38 kcal/mol
DOCKED: USER    (3) Torsional Free Energy           =  +1.49 kcal/mol
DOCKED: USER    (4) Unbound System's Energy         =  -1.38 kcal/mol
DOCKED: USER
DOCKED: USER
DOCKED: REMARK  Name = 
DOCKED: REMARK  7 active torsions:
DOCKED: REMARK  status: ('A' for Active; 'I' for Inactive)
DOCKED: REMARK    1  A    between atoms: C_1  and  C_2
DOCKED: REMARK    2  A    between atoms: C_2  and  C_3
DOCKED: REMARK    3  A    between atoms: CA_6  and  N_7
DOCKED: REMARK    4  A    between atoms: C_8  and  C_10
DOCKED: REMARK    5  A    between atoms: C_10  and  C_11
DOCKED: REMARK    6  A    between atoms: CA_20  and  C_21
DOCKED: REMARK    7  A    between atoms: C_21  and  OXT_23
DOCKED: REMARK                            x       y       z     vdW  Elec       q    Type
DOCKED: REMARK                         _______ _______ _______ _____ _____    ______ ____
DOCKED: USER                              x       y       z     vdW  Elec       q    Type
DOCKED: USER                           _______ _______ _______ _____ _____    ______ ____
DOCKED: ROOT
DOCKED: ATOM      1  C   UNL     1       8.860  31.171  17.491 -0.14 -0.02    +0.025 C  
DOCKED: ATOM      2  C   UNL     1       7.477  31.374  18.113 -0.19 -0.03    +0.042 C  
DOCKED: ATOM      3  C   UNL     1       7.467  32.618  19.010 -0.14 -0.01    +0.025 C  
DOCKED: ATOM      4  S   UNL     1       7.084  29.901  19.185 -0.14 +0.15    -0.127 S  
DOCKED: ATOM      5  C   UNL     1       5.278  30.210  19.045 -0.17 -0.18    +0.165 C  
DOCKED: ATOM      6  CA  UNL     1       4.360  29.072  18.542 -0.16 -0.21    +0.190 C  
DOCKED: ATOM      7  C   UNL     1       4.466  29.796  17.181 -0.25 -0.25    +0.240 C  
DOCKED: ATOM      8  O   UNL     1       4.222  29.578  16.017 -0.69 +0.17    -0.273 OA 
DOCKED: ATOM      9  N   UNL     1       5.133  30.859  17.719 -0.20 +0.27    -0.271 N  
DOCKED: ATOM     10  CA  UNL     1       6.359  31.325  17.058 -0.27 -0.15    +0.201 C  
DOCKED: ENDROOT
DOCKED: BRANCH   6  11
DOCKED: ATOM     11  N   UNL     1       4.882  27.685  18.619 -0.03 +0.38    -0.301 N  
DOCKED: ATOM     12  C   UNL     1       4.955  27.038  19.834 -0.05 -0.17    +0.218 C  
DOCKED: ATOM     13  O   UNL     1       4.587  27.573  20.878 -0.01 +0.17    -0.275 OA 
DOCKED: ATOM     14  H   UNL     1       5.176  27.193  17.782 -0.41 -0.31    +0.150 HD 
DOCKED: BRANCH  12  15
DOCKED: ATOM     15  C   UNL     1       5.522  25.634  19.786 -0.06 -0.09    +0.130 C  
DOCKED: BRANCH  15  16
DOCKED: ATOM     16  C   UNL     1       6.974  25.581  19.376 -0.09 +0.03    -0.039 A  
DOCKED: ATOM     17  C   UNL     1       7.431  24.587  18.501 -0.13 -0.00    +0.004 A  
DOCKED: ATOM     18  C   UNL     1       8.761  24.576  18.073 -0.16 -0.00    +0.000 A  
DOCKED: ATOM     19  C   UNL     1       9.646  25.560  18.513 -0.13 -0.00    +0.000 A  
DOCKED: ATOM     20  C   UNL     1       9.204  26.547  19.389 -0.10 -0.00    +0.000 A  
DOCKED: ATOM     21  C   UNL     1       7.876  26.560  19.820 -0.09 -0.00    +0.004 A  
DOCKED: ENDBRANCH  15  16
DOCKED: ENDBRANCH  12  15
DOCKED: ENDBRANCH   6  11
DOCKED: BRANCH  10  22
DOCKED: ATOM     22  C   UNL     1       6.118  32.614  16.269 -0.27 +0.04    +0.327 C  
DOCKED: ATOM     23  O   UNL     1       5.925  33.709  16.777 -0.46 -0.22    -0.249 OA 
DOCKED: BRANCH  22  24
DOCKED: ATOM     24  OXT UNL     1       6.284  32.473  14.931 -0.69 -0.26    -0.479 OA 
DOCKED: ATOM     25  HXT UNL     1       5.611  31.885  14.526 -0.21 -0.10    +0.295 HD 
DOCKED: ENDBRANCH  22  24
DOCKED: ENDBRANCH  10  22
DOCKED: TORSDOF 5
DOCKED: TER
DOCKED: ENDMDL
________________________________________________________________________________


    FINAL DOCKED STATE:
    ________________________


Run:   41 / 50
Time taken for this run:   0.000s

DOCKED: MODEL        41
DOCKED: USER    Run = 41
DOCKED: USER
DOCKED: USER    Estimated Free Energy of Binding    =  -4.74 kcal/mol  [=(1)+(2)+(3)-(4)]
DOCKED: USER
DOCKED: USER    (1) Final Intermolecular Energy     =  -6.23 kcal/mol
DOCKED: USER        vdW + Hbond + desolv Energy     =  -5.53 kcal/mol
DOCKED: USER        Electrostatic Energy            =  -0.70 kcal/mol
DOCKED: USER        Moving Ligand-Fixed Receptor    =  -6.23 kcal/mol
DOCKED: USER        Moving Ligand-Moving Receptor   =  +0.00 kcal/mol
DOCKED: USER    (2) Final Total Internal Energy     =  -1.36 kcal/mol
DOCKED: USER    (3) Torsional Free Energy           =  +1.49 kcal/mol
DOCKED: USER    (4) Unbound System's Energy         =  -1.36 kcal/mol
DOCKED: USER
DOCKED: USER
DOCKED: REMARK  Name = 
DOCKED: REMARK  7 active torsions:
DOCKED: REMARK  status: ('A' for Active; 'I' for Inactive)
DOCKED: REMARK    1  A    between atoms: C_1  and  C_2
DOCKED: REMARK    2  A    between atoms: C_2  and  C_3
DOCKED: REMARK    3  A    between atoms: CA_6  and  N_7
DOCKED: REMARK    4  A    between atoms: C_8  and  C_10
DOCKED: REMARK    5  A    between atoms: C_10  and  C_11
DOCKED: REMARK    6  A    between atoms: CA_20  and  C_21
DOCKED: REMARK    7  A    between atoms: C_21  and  OXT_23
DOCKED: REMARK                            x       y       z     vdW  Elec       q    Type
DOCKED: REMARK                         _______ _______ _______ _____ _____    ______ ____
DOCKED: USER                              x       y       z     vdW  Elec       q    Type
DOCKED: USER                           _______ _______ _______ _____ _____    ______ ____
DOCKED: ROOT
DOCKED: ATOM      1  C   UNL     1       8.636  31.468  17.534 -0.21 -0.02    +0.025 C  
DOCKED: ATOM      2  C   UNL     1       7.156  31.623  17.891 -0.22 -0.03    +0.042 C  
DOCKED: ATOM      3  C   UNL     1       6.903  32.974  18.570 -0.20 -0.01    +0.025 C  
DOCKED: ATOM      4  S   UNL     1       6.693  30.285  19.104 -0.17 +0.13    -0.127 S  
DOCKED: ATOM      5  C   UNL     1       4.921  30.395  18.634 -0.20 -0.19    +0.165 C  
DOCKED: ATOM      6  CA  UNL     1       4.186  29.113  18.176 -0.18 -0.21    +0.190 C  
DOCKED: ATOM      7  C   UNL     1       4.470  29.644  16.752 -0.25 -0.24    +0.240 C  
DOCKED: ATOM      8  O   UNL     1       4.445  29.241  15.613 -0.76 +0.16    -0.273 OA 
DOCKED: ATOM      9  N   UNL     1       4.957  30.832  17.217 -0.24 +0.25    -0.271 N  
DOCKED: ATOM     10  CA  UNL     1       6.241  31.316  16.693 -0.32 -0.14    +0.201 C  
DOCKED: ENDROOT
DOCKED: BRANCH   6  11
DOCKED: ATOM     11  N   UNL     1       4.786  27.808  18.549 -0.04 +0.38    -0.301 N  
DOCKED: ATOM     12  C   UNL     1       4.508  27.244  19.776 -0.05 -0.17    +0.218 C  
DOCKED: ATOM     13  O   UNL     1       3.758  27.786  20.586 -0.02 +0.18    -0.275 OA 
DOCKED: ATOM     14  H   UNL     1       5.392  27.311  17.905 -0.41 -0.34    +0.150 HD 
DOCKED: BRANCH  12  15
DOCKED: ATOM     15  C   UNL     1       5.194  25.920  20.049 -0.05 -0.08    +0.130 C  
DOCKED: BRANCH  15  16
DOCKED: ATOM     16  C   UNL     1       6.662  25.916  19.697 -0.08 +0.03    -0.039 A  
DOCKED: ATOM     17  C   UNL     1       7.182  24.954  18.821 -0.12 -0.00    +0.004 A  
DOCKED: ATOM     18  C   UNL     1       8.528  24.990  18.446 -0.13 -0.00    +0.000 A  
DOCKED: ATOM     19  C   UNL     1       9.366  25.986  18.943 -0.11 -0.00    +0.000 A  
DOCKED: ATOM     20  C   UNL     1       8.862  26.941  19.823 -0.09 -0.00    +0.000 A  
DOCKED: ATOM     21  C   UNL     1       7.519  26.908  20.198 -0.08 -0.00    +0.004 A  
DOCKED: ENDBRANCH  15  16
DOCKED: ENDBRANCH  12  15
DOCKED: ENDBRANCH   6  11
DOCKED: BRANCH  10  22
DOCKED: ATOM     22  C   UNL     1       6.046  32.451  15.685 -0.26 +0.06    +0.327 C  
DOCKED: ATOM     23  O   UNL     1       5.512  33.520  15.942 -0.50 -0.22    -0.249 OA 
DOCKED: BRANCH  22  24
DOCKED: ATOM     24  OXT UNL     1       6.657  32.233  14.494 -0.63 -0.23    -0.479 OA 
DOCKED: ATOM     25  HXT UNL     1       6.045  31.874  13.815 -0.21 -0.02    +0.295 HD 
DOCKED: ENDBRANCH  22  24
DOCKED: ENDBRANCH  10  22
DOCKED: TORSDOF 5
DOCKED: TER
DOCKED: ENDMDL
________________________________________________________________________________


    FINAL DOCKED STATE:
    ________________________


Run:   42 / 50
Time taken for this run:   0.000s

DOCKED: MODEL        42
DOCKED: USER    Run = 42
DOCKED: USER
DOCKED: USER    Estimated Free Energy of Binding    =  -3.60 kcal/mol  [=(1)+(2)+(3)-(4)]
DOCKED: USER
DOCKED: USER    (1) Final Intermolecular Energy     =  -5.09 kcal/mol
DOCKED: USER        vdW + Hbond + desolv Energy     =  -4.84 kcal/mol
DOCKED: USER        Electrostatic Energy            =  -0.25 kcal/mol
DOCKED: USER        Moving Ligand-Fixed Receptor    =  -5.09 kcal/mol
DOCKED: USER        Moving Ligand-Moving Receptor   =  +0.00 kcal/mol
DOCKED: USER    (2) Final Total Internal Energy     =  -1.60 kcal/mol
DOCKED: USER    (3) Torsional Free Energy           =  +1.49 kcal/mol
DOCKED: USER    (4) Unbound System's Energy         =  -1.60 kcal/mol
DOCKED: USER
DOCKED: USER
DOCKED: REMARK  Name = 
DOCKED: REMARK  7 active torsions:
DOCKED: REMARK  status: ('A' for Active; 'I' for Inactive)
DOCKED: REMARK    1  A    between atoms: C_1  and  C_2
DOCKED: REMARK    2  A    between atoms: C_2  and  C_3
DOCKED: REMARK    3  A    between atoms: CA_6  and  N_7
DOCKED: REMARK    4  A    between atoms: C_8  and  C_10
DOCKED: REMARK    5  A    between atoms: C_10  and  C_11
DOCKED: REMARK    6  A    between atoms: CA_20  and  C_21
DOCKED: REMARK    7  A    between atoms: C_21  and  OXT_23
DOCKED: REMARK                            x       y       z     vdW  Elec       q    Type
DOCKED: REMARK                         _______ _______ _______ _____ _____    ______ ____
DOCKED: USER                              x       y       z     vdW  Elec       q    Type
DOCKED: USER                           _______ _______ _______ _____ _____    ______ ____
DOCKED: ROOT
DOCKED: ATOM      1  C   UNL     1      13.047  33.011   9.053 -0.40 -0.01    +0.025 C  
DOCKED: ATOM      2  C   UNL     1      14.112  34.109   9.010 -0.38 -0.02    +0.042 C  
DOCKED: ATOM      3  C   UNL     1      13.727  35.195   7.999 -0.29 -0.00    +0.025 C  
DOCKED: ATOM      4  S   UNL     1      15.721  33.356   8.446 -0.38 +0.08    -0.127 S  
DOCKED: ATOM      5  C   UNL     1      16.692  34.697   9.242 -0.13 -0.07    +0.165 C  
DOCKED: ATOM      6  CA  UNL     1      17.802  34.321  10.251 -0.09 -0.11    +0.190 C  
DOCKED: ATOM      7  C   UNL     1      16.726  34.635  11.316 -0.03 -0.19    +0.240 C  
DOCKED: ATOM      8  O   UNL     1      16.545  34.464  12.499 -0.07 +0.21    -0.273 OA 
DOCKED: ATOM      9  N   UNL     1      15.847  35.113  10.387 -0.06 +0.16    -0.271 N  
DOCKED: ATOM     10  CA  UNL     1      14.462  34.625  10.416 -0.15 -0.13    +0.201 C  
DOCKED: ENDROOT
DOCKED: BRANCH   6  11
DOCKED: ATOM     11  N   UNL     1      18.331  32.936  10.204 -0.09 +0.22    -0.301 N  
DOCKED: ATOM     12  C   UNL     1      19.306  32.597   9.290 -0.07 -0.01    +0.218 C  
DOCKED: ATOM     13  O   UNL     1      19.772  33.418   8.503 -0.51 -0.11    -0.275 OA 
DOCKED: ATOM     14  H   UNL     1      17.995  32.228  10.849 -0.27 -0.22    +0.150 HD 
DOCKED: BRANCH  12  15
DOCKED: ATOM     15  C   UNL     1      19.752  31.149   9.327 -0.24 -0.01    +0.130 C  
DOCKED: BRANCH  15  16
DOCKED: ATOM     16  C   UNL     1      21.206  30.972   9.692 -0.25 +0.00    -0.039 A  
DOCKED: ATOM     17  C   UNL     1      22.214  31.517   8.885 -0.28 +0.00    +0.004 A  
DOCKED: ATOM     18  C   UNL     1      23.556  31.407   9.256 -0.30 -0.00    +0.000 A  
DOCKED: ATOM     19  C   UNL     1      23.905  30.754  10.437 -0.24 -0.00    +0.000 A  
DOCKED: ATOM     20  C   UNL     1      22.912  30.201  11.242 -0.21 -0.00    +0.000 A  
DOCKED: ATOM     21  C   UNL     1      21.570  30.309  10.874 -0.22 -0.00    +0.004 A  
DOCKED: ENDBRANCH  15  16
DOCKED: ENDBRANCH  12  15
DOCKED: ENDBRANCH   6  11
DOCKED: BRANCH  10  22
DOCKED: ATOM     22  C   UNL     1      13.509  35.666  11.009 -0.07 -0.10    +0.327 C  
DOCKED: ATOM     23  O   UNL     1      12.395  35.912  10.570 -0.14 +0.04    -0.249 OA 
DOCKED: BRANCH  22  24
DOCKED: ATOM     24  OXT UNL     1      13.948  36.205  12.174 +0.00 +0.14    -0.479 OA 
DOCKED: ATOM     25  HXT UNL     1      14.799  35.818  12.473 +0.05 -0.11    +0.295 HD 
DOCKED: ENDBRANCH  22  24
DOCKED: ENDBRANCH  10  22
DOCKED: TORSDOF 5
DOCKED: TER
DOCKED: ENDMDL
________________________________________________________________________________


    FINAL DOCKED STATE:
    ________________________


Run:   43 / 50
Time taken for this run:   0.000s

DOCKED: MODEL        43
DOCKED: USER    Run = 43
DOCKED: USER
DOCKED: USER    Estimated Free Energy of Binding    =  -3.60 kcal/mol  [=(1)+(2)+(3)-(4)]
DOCKED: USER
DOCKED: USER    (1) Final Intermolecular Energy     =  -5.09 kcal/mol
DOCKED: USER        vdW + Hbond + desolv Energy     =  -5.13 kcal/mol
DOCKED: USER        Electrostatic Energy            =  +0.04 kcal/mol
DOCKED: USER        Moving Ligand-Fixed Receptor    =  -5.09 kcal/mol
DOCKED: USER        Moving Ligand-Moving Receptor   =  +0.00 kcal/mol
DOCKED: USER    (2) Final Total Internal Energy     =  -1.70 kcal/mol
DOCKED: USER    (3) Torsional Free Energy           =  +1.49 kcal/mol
DOCKED: USER    (4) Unbound System's Energy         =  -1.70 kcal/mol
DOCKED: USER
DOCKED: USER
DOCKED: REMARK  Name = 
DOCKED: REMARK  7 active torsions:
DOCKED: REMARK  status: ('A' for Active; 'I' for Inactive)
DOCKED: REMARK    1  A    between atoms: C_1  and  C_2
DOCKED: REMARK    2  A    between atoms: C_2  and  C_3
DOCKED: REMARK    3  A    between atoms: CA_6  and  N_7
DOCKED: REMARK    4  A    between atoms: C_8  and  C_10
DOCKED: REMARK    5  A    between atoms: C_10  and  C_11
DOCKED: REMARK    6  A    between atoms: CA_20  and  C_21
DOCKED: REMARK    7  A    between atoms: C_21  and  OXT_23
DOCKED: REMARK                            x       y       z     vdW  Elec       q    Type
DOCKED: REMARK                         _______ _______ _______ _____ _____    ______ ____
DOCKED: USER                              x       y       z     vdW  Elec       q    Type
DOCKED: USER                           _______ _______ _______ _____ _____    ______ ____
DOCKED: ROOT
DOCKED: ATOM      1  C   UNL     1      10.421  19.263  17.777 -0.21 -0.00    +0.025 C  
DOCKED: ATOM      2  C   UNL     1      10.285  20.162  16.547 -0.34 -0.01    +0.042 C  
DOCKED: ATOM      3  C   UNL     1      10.267  19.322  15.264 -0.45 -0.00    +0.025 C  
DOCKED: ATOM      4  S   UNL     1      11.769  21.287  16.463 -0.39 +0.01    -0.127 S  
DOCKED: ATOM      5  C   UNL     1      10.850  22.517  15.455 -0.18 +0.00    +0.165 C  
DOCKED: ATOM      6  CA  UNL     1      10.777  23.982  15.944 -0.28 +0.00    +0.190 C  
DOCKED: ATOM      7  C   UNL     1       9.389  23.570  16.485 -0.22 -0.07    +0.240 C  
DOCKED: ATOM      8  O   UNL     1       8.548  23.998  17.240 -0.16 +0.14    -0.273 OA 
DOCKED: ATOM      9  N   UNL     1       9.442  22.345  15.885 -0.20 +0.05    -0.271 N  
DOCKED: ATOM     10  CA  UNL     1       9.121  21.157  16.688 -0.19 -0.04    +0.201 C  
DOCKED: ENDROOT
DOCKED: BRANCH   6  11
DOCKED: ATOM     11  N   UNL     1      11.790  24.427  16.933 -0.12 -0.02    -0.301 N  
DOCKED: ATOM     12  C   UNL     1      11.891  25.760  17.269 -0.08 +0.03    +0.218 C  
DOCKED: ATOM     13  O   UNL     1      11.152  26.611  16.780 -0.60 -0.04    -0.275 OA 
DOCKED: ATOM     14  H   UNL     1      12.407  23.758  17.381 +0.05 +0.00    +0.150 HD 
DOCKED: BRANCH  12  15
DOCKED: ATOM     15  C   UNL     1      12.975  26.092  18.275 -0.14 +0.00    +0.130 C  
DOCKED: BRANCH  15  16
DOCKED: ATOM     16  C   UNL     1      14.350  25.625  17.860 -0.14 -0.00    -0.039 A  
DOCKED: ATOM     17  C   UNL     1      15.263  26.520  17.288 -0.17 +0.00    +0.004 A  
DOCKED: ATOM     18  C   UNL     1      16.556  26.103  16.963 -0.24 +0.00    +0.000 A  
DOCKED: ATOM     19  C   UNL     1      16.949  24.788  17.208 -0.27 -0.00    +0.000 A  
DOCKED: ATOM     20  C   UNL     1      16.046  23.887  17.767 -0.25 -0.00    +0.000 A  
DOCKED: ATOM     21  C   UNL     1      14.754  24.301  18.093 -0.17 -0.00    +0.004 A  
DOCKED: ENDBRANCH  15  16
DOCKED: ENDBRANCH  12  15
DOCKED: ENDBRANCH   6  11
DOCKED: BRANCH  10  22
DOCKED: ATOM     22  C   UNL     1       7.727  20.616  16.362 -0.16 -0.06    +0.327 C  
DOCKED: ATOM     23  O   UNL     1       7.442  19.429  16.311 -0.21 +0.03    -0.249 OA 
DOCKED: BRANCH  22  24
DOCKED: ATOM     24  OXT UNL     1       6.776  21.578  16.276 -0.09 +0.14    -0.479 OA 
DOCKED: ATOM     25  HXT UNL     1       7.104  22.461  16.551 +0.10 -0.11    +0.295 HD 
DOCKED: ENDBRANCH  22  24
DOCKED: ENDBRANCH  10  22
DOCKED: TORSDOF 5
DOCKED: TER
DOCKED: ENDMDL
________________________________________________________________________________


    FINAL DOCKED STATE:
    ________________________


Run:   44 / 50
Time taken for this run:   0.000s

DOCKED: MODEL        44
DOCKED: USER    Run = 44
DOCKED: USER
DOCKED: USER    Estimated Free Energy of Binding    =  -4.69 kcal/mol  [=(1)+(2)+(3)-(4)]
DOCKED: USER
DOCKED: USER    (1) Final Intermolecular Energy     =  -6.18 kcal/mol
DOCKED: USER        vdW + Hbond + desolv Energy     =  -5.46 kcal/mol
DOCKED: USER        Electrostatic Energy            =  -0.71 kcal/mol
DOCKED: USER        Moving Ligand-Fixed Receptor    =  -6.18 kcal/mol
DOCKED: USER        Moving Ligand-Moving Receptor   =  +0.00 kcal/mol
DOCKED: USER    (2) Final Total Internal Energy     =  -1.66 kcal/mol
DOCKED: USER    (3) Torsional Free Energy           =  +1.49 kcal/mol
DOCKED: USER    (4) Unbound System's Energy         =  -1.66 kcal/mol
DOCKED: USER
DOCKED: USER
DOCKED: REMARK  Name = 
DOCKED: REMARK  7 active torsions:
DOCKED: REMARK  status: ('A' for Active; 'I' for Inactive)
DOCKED: REMARK    1  A    between atoms: C_1  and  C_2
DOCKED: REMARK    2  A    between atoms: C_2  and  C_3
DOCKED: REMARK    3  A    between atoms: CA_6  and  N_7
DOCKED: REMARK    4  A    between atoms: C_8  and  C_10
DOCKED: REMARK    5  A    between atoms: C_10  and  C_11
DOCKED: REMARK    6  A    between atoms: CA_20  and  C_21
DOCKED: REMARK    7  A    between atoms: C_21  and  OXT_23
DOCKED: REMARK                            x       y       z     vdW  Elec       q    Type
DOCKED: REMARK                         _______ _______ _______ _____ _____    ______ ____
DOCKED: USER                              x       y       z     vdW  Elec       q    Type
DOCKED: USER                           _______ _______ _______ _____ _____    ______ ____
DOCKED: ROOT
DOCKED: ATOM      1  C   UNL     1       8.567  31.213  18.579 -0.13 -0.02    +0.025 C  
DOCKED: ATOM      2  C   UNL     1       7.051  31.367  18.715 -0.17 -0.03    +0.042 C  
DOCKED: ATOM      3  C   UNL     1       6.709  32.588  19.578 -0.14 -0.01    +0.025 C  
DOCKED: ATOM      4  S   UNL     1       6.374  29.860  19.578 -0.15 +0.13    -0.127 S  
DOCKED: ATOM      5  C   UNL     1       4.706  30.128  18.856 -0.18 -0.19    +0.165 C  
DOCKED: ATOM      6  CA  UNL     1       4.039  28.980  18.063 -0.18 -0.20    +0.190 C  
DOCKED: ATOM      7  C   UNL     1       4.563  29.738  16.823 -0.25 -0.24    +0.240 C  
DOCKED: ATOM      8  O   UNL     1       4.721  29.542  15.641 -0.63 +0.15    -0.273 OA 
DOCKED: ATOM      9  N   UNL     1       4.983  30.804  17.566 -0.22 +0.27    -0.271 N  
DOCKED: ATOM     10  CA  UNL     1       6.343  31.316  17.351 -0.25 -0.16    +0.201 C  
DOCKED: ENDROOT
DOCKED: BRANCH   6  11
DOCKED: ATOM     11  N   UNL     1       4.549  27.604  18.287 -0.03 +0.37    -0.301 N  
DOCKED: ATOM     12  C   UNL     1       4.124  26.877  19.379 -0.05 -0.16    +0.218 C  
DOCKED: ATOM     13  O   UNL     1       3.314  27.328  20.185 -0.02 +0.16    -0.275 OA 
DOCKED: ATOM     14  H   UNL     1       5.202  27.180  17.637 -0.39 -0.34    +0.150 HD 
DOCKED: BRANCH  12  15
DOCKED: ATOM     15  C   UNL     1       4.731  25.494  19.509 -0.05 -0.08    +0.130 C  
DOCKED: BRANCH  15  16
DOCKED: ATOM     16  C   UNL     1       5.016  24.830  18.183 -0.10 +0.03    -0.039 A  
DOCKED: ATOM     17  C   UNL     1       6.278  24.284  17.917 -0.15 -0.00    +0.004 A  
DOCKED: ATOM     18  C   UNL     1       6.522  23.614  16.715 -0.24 -0.00    +0.000 A  
DOCKED: ATOM     19  C   UNL     1       5.506  23.483  15.769 -0.26 -0.00    +0.000 A  
DOCKED: ATOM     20  C   UNL     1       4.251  24.030  16.019 -0.23 -0.00    +0.000 A  
DOCKED: ATOM     21  C   UNL     1       4.004  24.700  17.219 -0.12 -0.00    +0.004 A  
DOCKED: ENDBRANCH  15  16
DOCKED: ENDBRANCH  12  15
DOCKED: ENDBRANCH   6  11
DOCKED: BRANCH  10  22
DOCKED: ATOM     22  C   UNL     1       6.335  32.617  16.546 -0.25 +0.01    +0.327 C  
DOCKED: ATOM     23  O   UNL     1       6.797  33.677  16.941 -0.53 -0.17    -0.249 OA 
DOCKED: BRANCH  22  24
DOCKED: ATOM     24  OXT UNL     1       5.895  32.467  15.272 -0.63 -0.13    -0.479 OA 
DOCKED: ATOM     25  HXT UNL     1       5.500  31.583  15.110 -0.12 -0.10    +0.295 HD 
DOCKED: ENDBRANCH  22  24
DOCKED: ENDBRANCH  10  22
DOCKED: TORSDOF 5
DOCKED: TER
DOCKED: ENDMDL
________________________________________________________________________________


    FINAL DOCKED STATE:
    ________________________


Run:   45 / 50
Time taken for this run:   0.000s

DOCKED: MODEL        45
DOCKED: USER    Run = 45
DOCKED: USER
DOCKED: USER    Estimated Free Energy of Binding    =  -3.66 kcal/mol  [=(1)+(2)+(3)-(4)]
DOCKED: USER
DOCKED: USER    (1) Final Intermolecular Energy     =  -5.15 kcal/mol
DOCKED: USER        vdW + Hbond + desolv Energy     =  -5.18 kcal/mol
DOCKED: USER        Electrostatic Energy            =  +0.04 kcal/mol
DOCKED: USER        Moving Ligand-Fixed Receptor    =  -5.15 kcal/mol
DOCKED: USER        Moving Ligand-Moving Receptor   =  +0.00 kcal/mol
DOCKED: USER    (2) Final Total Internal Energy     =  -1.71 kcal/mol
DOCKED: USER    (3) Torsional Free Energy           =  +1.49 kcal/mol
DOCKED: USER    (4) Unbound System's Energy         =  -1.71 kcal/mol
DOCKED: USER
DOCKED: USER
DOCKED: REMARK  Name = 
DOCKED: REMARK  7 active torsions:
DOCKED: REMARK  status: ('A' for Active; 'I' for Inactive)
DOCKED: REMARK    1  A    between atoms: C_1  and  C_2
DOCKED: REMARK    2  A    between atoms: C_2  and  C_3
DOCKED: REMARK    3  A    between atoms: CA_6  and  N_7
DOCKED: REMARK    4  A    between atoms: C_8  and  C_10
DOCKED: REMARK    5  A    between atoms: C_10  and  C_11
DOCKED: REMARK    6  A    between atoms: CA_20  and  C_21
DOCKED: REMARK    7  A    between atoms: C_21  and  OXT_23
DOCKED: REMARK                            x       y       z     vdW  Elec       q    Type
DOCKED: REMARK                         _______ _______ _______ _____ _____    ______ ____
DOCKED: USER                              x       y       z     vdW  Elec       q    Type
DOCKED: USER                           _______ _______ _______ _____ _____    ______ ____
DOCKED: ROOT
DOCKED: ATOM      1  C   UNL     1      10.413  19.250  17.776 -0.21 -0.00    +0.025 C  
DOCKED: ATOM      2  C   UNL     1      10.303  20.149  16.543 -0.34 -0.01    +0.042 C  
DOCKED: ATOM      3  C   UNL     1      10.308  19.308  15.261 -0.46 -0.00    +0.025 C  
DOCKED: ATOM      4  S   UNL     1      11.790  21.271  16.488 -0.39 +0.01    -0.127 S  
DOCKED: ATOM      5  C   UNL     1      10.893  22.503  15.461 -0.19 +0.00    +0.165 C  
DOCKED: ATOM      6  CA  UNL     1      10.812  23.968  15.948 -0.27 +0.00    +0.190 C  
DOCKED: ATOM      7  C   UNL     1       9.413  23.559  16.461 -0.22 -0.07    +0.240 C  
DOCKED: ATOM      8  O   UNL     1       8.558  23.988  17.200 -0.16 +0.14    -0.273 OA 
DOCKED: ATOM      9  N   UNL     1       9.476  22.333  15.863 -0.20 +0.05    -0.271 N  
DOCKED: ATOM     10  CA  UNL     1       9.138  21.146  16.661 -0.19 -0.04    +0.201 C  
DOCKED: ENDROOT
DOCKED: BRANCH   6  11
DOCKED: ATOM     11  N   UNL     1      11.806  24.412  16.956 -0.12 -0.02    -0.301 N  
DOCKED: ATOM     12  C   UNL     1      11.907  25.746  17.289 -0.09 +0.03    +0.218 C  
DOCKED: ATOM     13  O   UNL     1      11.182  26.599  16.781 -0.59 -0.05    -0.275 OA 
DOCKED: ATOM     14  H   UNL     1      12.410  23.742  17.420 +0.05 -0.00    +0.150 HD 
DOCKED: BRANCH  12  15
DOCKED: ATOM     15  C   UNL     1      12.971  26.076  18.317 -0.13 -0.00    +0.130 C  
DOCKED: BRANCH  15  16
DOCKED: ATOM     16  C   UNL     1      14.367  25.694  17.887 -0.15 -0.00    -0.039 A  
DOCKED: ATOM     17  C   UNL     1      14.809  24.369  18.001 -0.17 -0.00    +0.004 A  
DOCKED: ATOM     18  C   UNL     1      16.078  24.004  17.545 -0.27 -0.00    +0.000 A  
DOCKED: ATOM     19  C   UNL     1      16.916  24.958  16.969 -0.28 -0.00    +0.000 A  
DOCKED: ATOM     20  C   UNL     1      16.490  26.279  16.859 -0.25 +0.00    +0.000 A  
DOCKED: ATOM     21  C   UNL     1      15.223  26.647  17.314 -0.17 +0.00    +0.004 A  
DOCKED: ENDBRANCH  15  16
DOCKED: ENDBRANCH  12  15
DOCKED: ENDBRANCH   6  11
DOCKED: BRANCH  10  22
DOCKED: ATOM     22  C   UNL     1       7.749  20.607  16.308 -0.16 -0.06    +0.327 C  
DOCKED: ATOM     23  O   UNL     1       7.470  19.420  16.224 -0.21 +0.03    -0.249 OA 
DOCKED: BRANCH  22  24
DOCKED: ATOM     24  OXT UNL     1       6.794  21.567  16.237 -0.10 +0.14    -0.479 OA 
DOCKED: ATOM     25  HXT UNL     1       7.131  22.455  16.483 +0.10 -0.11    +0.295 HD 
DOCKED: ENDBRANCH  22  24
DOCKED: ENDBRANCH  10  22
DOCKED: TORSDOF 5
DOCKED: TER
DOCKED: ENDMDL
________________________________________________________________________________


    FINAL DOCKED STATE:
    ________________________


Run:   46 / 50
Time taken for this run:   0.000s

DOCKED: MODEL        46
DOCKED: USER    Run = 46
DOCKED: USER
DOCKED: USER    Estimated Free Energy of Binding    =  -3.65 kcal/mol  [=(1)+(2)+(3)-(4)]
DOCKED: USER
DOCKED: USER    (1) Final Intermolecular Energy     =  -5.14 kcal/mol
DOCKED: USER        vdW + Hbond + desolv Energy     =  -5.18 kcal/mol
DOCKED: USER        Electrostatic Energy            =  +0.04 kcal/mol
DOCKED: USER        Moving Ligand-Fixed Receptor    =  -5.14 kcal/mol
DOCKED: USER        Moving Ligand-Moving Receptor   =  +0.00 kcal/mol
DOCKED: USER    (2) Final Total Internal Energy     =  -1.71 kcal/mol
DOCKED: USER    (3) Torsional Free Energy           =  +1.49 kcal/mol
DOCKED: USER    (4) Unbound System's Energy         =  -1.71 kcal/mol
DOCKED: USER
DOCKED: USER
DOCKED: REMARK  Name = 
DOCKED: REMARK  7 active torsions:
DOCKED: REMARK  status: ('A' for Active; 'I' for Inactive)
DOCKED: REMARK    1  A    between atoms: C_1  and  C_2
DOCKED: REMARK    2  A    between atoms: C_2  and  C_3
DOCKED: REMARK    3  A    between atoms: CA_6  and  N_7
DOCKED: REMARK    4  A    between atoms: C_8  and  C_10
DOCKED: REMARK    5  A    between atoms: C_10  and  C_11
DOCKED: REMARK    6  A    between atoms: CA_20  and  C_21
DOCKED: REMARK    7  A    between atoms: C_21  and  OXT_23
DOCKED: REMARK                            x       y       z     vdW  Elec       q    Type
DOCKED: REMARK                         _______ _______ _______ _____ _____    ______ ____
DOCKED: USER                              x       y       z     vdW  Elec       q    Type
DOCKED: USER                           _______ _______ _______ _____ _____    ______ ____
DOCKED: ROOT
DOCKED: ATOM      1  C   UNL     1      10.414  19.262  17.790 -0.21 -0.00    +0.025 C  
DOCKED: ATOM      2  C   UNL     1      10.310  20.154  16.552 -0.33 -0.01    +0.042 C  
DOCKED: ATOM      3  C   UNL     1      10.325  19.307  15.274 -0.46 -0.00    +0.025 C  
DOCKED: ATOM      4  S   UNL     1      11.796  21.279  16.501 -0.39 +0.01    -0.127 S  
DOCKED: ATOM      5  C   UNL     1      10.903  22.503  15.462 -0.19 +0.00    +0.165 C  
DOCKED: ATOM      6  CA  UNL     1      10.817  23.971  15.941 -0.27 +0.00    +0.190 C  
DOCKED: ATOM      7  C   UNL     1       9.416  23.562  16.448 -0.23 -0.07    +0.240 C  
DOCKED: ATOM      8  O   UNL     1       8.555  23.994  17.178 -0.17 +0.14    -0.273 OA 
DOCKED: ATOM      9  N   UNL     1       9.484  22.334  15.856 -0.20 +0.05    -0.271 N  
DOCKED: ATOM     10  CA  UNL     1       9.143  21.150  16.657 -0.19 -0.04    +0.201 C  
DOCKED: ENDROOT
DOCKED: BRANCH   6  11
DOCKED: ATOM     11  N   UNL     1      11.804  24.422  16.954 -0.12 -0.02    -0.301 N  
DOCKED: ATOM     12  C   UNL     1      11.897  25.757  17.284 -0.09 +0.03    +0.218 C  
DOCKED: ATOM     13  O   UNL     1      11.172  26.606  16.770 -0.60 -0.05    -0.275 OA 
DOCKED: ATOM     14  H   UNL     1      12.409  23.755  17.423 +0.05 -0.00    +0.150 HD 
DOCKED: BRANCH  12  15
DOCKED: ATOM     15  C   UNL     1      12.955  26.094  18.316 -0.13 -0.00    +0.130 C  
DOCKED: BRANCH  15  16
DOCKED: ATOM     16  C   UNL     1      14.339  25.620  17.943 -0.14 -0.00    -0.039 A  
DOCKED: ATOM     17  C   UNL     1      14.697  24.275  18.100 -0.16 -0.00    +0.004 A  
DOCKED: ATOM     18  C   UNL     1      15.956  23.825  17.695 -0.26 -0.00    +0.000 A  
DOCKED: ATOM     19  C   UNL     1      16.868  24.713  17.128 -0.28 -0.00    +0.000 A  
DOCKED: ATOM     20  C   UNL     1      16.526  26.054  16.976 -0.24 +0.00    +0.000 A  
DOCKED: ATOM     21  C   UNL     1      15.269  26.507  17.379 -0.17 +0.00    +0.004 A  
DOCKED: ENDBRANCH  15  16
DOCKED: ENDBRANCH  12  15
DOCKED: ENDBRANCH   6  11
DOCKED: BRANCH  10  22
DOCKED: ATOM     22  C   UNL     1       7.758  20.607  16.299 -0.16 -0.06    +0.327 C  
DOCKED: ATOM     23  O   UNL     1       7.474  19.419  16.247 -0.21 +0.03    -0.249 OA 
DOCKED: BRANCH  22  24
DOCKED: ATOM     24  OXT UNL     1       6.809  21.569  16.181 -0.10 +0.14    -0.479 OA 
DOCKED: ATOM     25  HXT UNL     1       7.127  22.451  16.471 +0.10 -0.11    +0.295 HD 
DOCKED: ENDBRANCH  22  24
DOCKED: ENDBRANCH  10  22
DOCKED: TORSDOF 5
DOCKED: TER
DOCKED: ENDMDL
________________________________________________________________________________


    FINAL DOCKED STATE:
    ________________________


Run:   47 / 50
Time taken for this run:   0.000s

DOCKED: MODEL        47
DOCKED: USER    Run = 47
DOCKED: USER
DOCKED: USER    Estimated Free Energy of Binding    =  -4.62 kcal/mol  [=(1)+(2)+(3)-(4)]
DOCKED: USER
DOCKED: USER    (1) Final Intermolecular Energy     =  -6.12 kcal/mol
DOCKED: USER        vdW + Hbond + desolv Energy     =  -5.38 kcal/mol
DOCKED: USER        Electrostatic Energy            =  -0.73 kcal/mol
DOCKED: USER        Moving Ligand-Fixed Receptor    =  -6.12 kcal/mol
DOCKED: USER        Moving Ligand-Moving Receptor   =  +0.00 kcal/mol
DOCKED: USER    (2) Final Total Internal Energy     =  -1.69 kcal/mol
DOCKED: USER    (3) Torsional Free Energy           =  +1.49 kcal/mol
DOCKED: USER    (4) Unbound System's Energy         =  -1.69 kcal/mol
DOCKED: USER
DOCKED: USER
DOCKED: REMARK  Name = 
DOCKED: REMARK  7 active torsions:
DOCKED: REMARK  status: ('A' for Active; 'I' for Inactive)
DOCKED: REMARK    1  A    between atoms: C_1  and  C_2
DOCKED: REMARK    2  A    between atoms: C_2  and  C_3
DOCKED: REMARK    3  A    between atoms: CA_6  and  N_7
DOCKED: REMARK    4  A    between atoms: C_8  and  C_10
DOCKED: REMARK    5  A    between atoms: C_10  and  C_11
DOCKED: REMARK    6  A    between atoms: CA_20  and  C_21
DOCKED: REMARK    7  A    between atoms: C_21  and  OXT_23
DOCKED: REMARK                            x       y       z     vdW  Elec       q    Type
DOCKED: REMARK                         _______ _______ _______ _____ _____    ______ ____
DOCKED: USER                              x       y       z     vdW  Elec       q    Type
DOCKED: USER                           _______ _______ _______ _____ _____    ______ ____
DOCKED: ROOT
DOCKED: ATOM      1  C   UNL     1       8.943  31.204  18.208 -0.15 -0.02    +0.025 C  
DOCKED: ATOM      2  C   UNL     1       7.456  31.509  18.397 -0.17 -0.03    +0.042 C  
DOCKED: ATOM      3  C   UNL     1       7.268  32.834  19.145 -0.14 -0.01    +0.025 C  
DOCKED: ATOM      4  S   UNL     1       6.698  30.161  19.438 -0.15 +0.13    -0.127 S  
DOCKED: ATOM      5  C   UNL     1       5.023  30.510  18.770 -0.19 -0.19    +0.165 C  
DOCKED: ATOM      6  CA  UNL     1       4.216  29.357  18.130 -0.20 -0.21    +0.190 C  
DOCKED: ATOM      7  C   UNL     1       4.736  29.940  16.796 -0.27 -0.24    +0.240 C  
DOCKED: ATOM      8  O   UNL     1       4.811  29.616  15.634 -0.66 +0.15    -0.273 OA 
DOCKED: ATOM      9  N   UNL     1       5.286  31.029  17.407 -0.22 +0.24    -0.271 N  
DOCKED: ATOM     10  CA  UNL     1       6.672  31.391  17.079 -0.26 -0.15    +0.201 C  
DOCKED: ENDROOT
DOCKED: BRANCH   6  11
DOCKED: ATOM     11  N   UNL     1       4.616  27.968  18.469 -0.05 +0.37    -0.301 N  
DOCKED: ATOM     12  C   UNL     1       4.185  27.391  19.644 -0.05 -0.17    +0.218 C  
DOCKED: ATOM     13  O   UNL     1       3.458  27.989  20.433 -0.02 +0.18    -0.275 OA 
DOCKED: ATOM     14  H   UNL     1       5.197  27.426  17.838 -0.42 -0.31    +0.150 HD 
DOCKED: BRANCH  12  15
DOCKED: ATOM     15  C   UNL     1       4.676  25.977  19.886 -0.04 -0.08    +0.130 C  
DOCKED: BRANCH  15  16
DOCKED: ATOM     16  C   UNL     1       5.191  25.293  18.643 -0.09 +0.03    -0.039 A  
DOCKED: ATOM     17  C   UNL     1       6.529  24.886  18.556 -0.12 -0.00    +0.004 A  
DOCKED: ATOM     18  C   UNL     1       6.989  24.197  17.431 -0.18 -0.00    +0.000 A  
DOCKED: ATOM     19  C   UNL     1       6.116  23.906  16.383 -0.22 -0.00    +0.000 A  
DOCKED: ATOM     20  C   UNL     1       4.787  24.314  16.455 -0.22 -0.00    +0.000 A  
DOCKED: ATOM     21  C   UNL     1       4.324  25.003  17.578 -0.12 -0.00    +0.004 A  
DOCKED: ENDBRANCH  15  16
DOCKED: ENDBRANCH  12  15
DOCKED: ENDBRANCH   6  11
DOCKED: BRANCH  10  22
DOCKED: ATOM     22  C   UNL     1       6.733  32.603  16.147 -0.25 +0.06    +0.327 C  
DOCKED: ATOM     23  O   UNL     1       7.307  33.649  16.410 -0.37 -0.20    -0.249 OA 
DOCKED: BRANCH  22  24
DOCKED: ATOM     24  OXT UNL     1       6.213  32.371  14.916 -0.67 -0.19    -0.479 OA 
DOCKED: ATOM     25  HXT UNL     1       5.712  31.528  14.870 -0.16 -0.10    +0.295 HD 
DOCKED: ENDBRANCH  22  24
DOCKED: ENDBRANCH  10  22
DOCKED: TORSDOF 5
DOCKED: TER
DOCKED: ENDMDL
________________________________________________________________________________


    FINAL DOCKED STATE:
    ________________________


Run:   48 / 50
Time taken for this run:   0.000s

DOCKED: MODEL        48
DOCKED: USER    Run = 48
DOCKED: USER
DOCKED: USER    Estimated Free Energy of Binding    =  -4.32 kcal/mol  [=(1)+(2)+(3)-(4)]
DOCKED: USER
DOCKED: USER    (1) Final Intermolecular Energy     =  -5.82 kcal/mol
DOCKED: USER        vdW + Hbond + desolv Energy     =  -5.05 kcal/mol
DOCKED: USER        Electrostatic Energy            =  -0.77 kcal/mol
DOCKED: USER        Moving Ligand-Fixed Receptor    =  -5.82 kcal/mol
DOCKED: USER        Moving Ligand-Moving Receptor   =  +0.00 kcal/mol
DOCKED: USER    (2) Final Total Internal Energy     =  -1.85 kcal/mol
DOCKED: USER    (3) Torsional Free Energy           =  +1.49 kcal/mol
DOCKED: USER    (4) Unbound System's Energy         =  -1.85 kcal/mol
DOCKED: USER
DOCKED: USER
DOCKED: REMARK  Name = 
DOCKED: REMARK  7 active torsions:
DOCKED: REMARK  status: ('A' for Active; 'I' for Inactive)
DOCKED: REMARK    1  A    between atoms: C_1  and  C_2
DOCKED: REMARK    2  A    between atoms: C_2  and  C_3
DOCKED: REMARK    3  A    between atoms: CA_6  and  N_7
DOCKED: REMARK    4  A    between atoms: C_8  and  C_10
DOCKED: REMARK    5  A    between atoms: C_10  and  C_11
DOCKED: REMARK    6  A    between atoms: CA_20  and  C_21
DOCKED: REMARK    7  A    between atoms: C_21  and  OXT_23
DOCKED: REMARK                            x       y       z     vdW  Elec       q    Type
DOCKED: REMARK                         _______ _______ _______ _____ _____    ______ ____
DOCKED: USER                              x       y       z     vdW  Elec       q    Type
DOCKED: USER                           _______ _______ _______ _____ _____    ______ ____
DOCKED: ROOT
DOCKED: ATOM      1  C   UNL     1       9.140  31.114  18.021 -0.15 -0.02    +0.025 C  
DOCKED: ATOM      2  C   UNL     1       7.668  31.417  18.305 -0.17 -0.03    +0.042 C  
DOCKED: ATOM      3  C   UNL     1       7.530  32.721  19.101 -0.13 -0.01    +0.025 C  
DOCKED: ATOM      4  S   UNL     1       6.966  30.042  19.349 -0.15 +0.13    -0.127 S  
DOCKED: ATOM      5  C   UNL     1       5.256  30.415  18.790 -0.19 -0.18    +0.165 C  
DOCKED: ATOM      6  CA  UNL     1       4.409  29.283  18.164 -0.19 -0.22    +0.190 C  
DOCKED: ATOM      7  C   UNL     1       4.853  29.903  16.820 -0.25 -0.25    +0.240 C  
DOCKED: ATOM      8  O   UNL     1       4.859  29.613  15.647 -0.66 +0.16    -0.273 OA 
DOCKED: ATOM      9  N   UNL     1       5.443  30.973  17.429 -0.21 +0.25    -0.271 N  
DOCKED: ATOM     10  CA  UNL     1       6.809  31.340  17.032 -0.25 -0.15    +0.201 C  
DOCKED: ENDROOT
DOCKED: BRANCH   6  11
DOCKED: ATOM     11  N   UNL     1       4.822  27.884  18.439 -0.01 +0.40    -0.301 N  
DOCKED: ATOM     12  C   UNL     1       4.238  27.179  19.470 -0.05 -0.17    +0.218 C  
DOCKED: ATOM     13  O   UNL     1       3.361  27.670  20.178 -0.02 +0.18    -0.275 OA 
DOCKED: ATOM     14  H   UNL     1       5.525  27.428  17.867 -0.40 -0.39    +0.150 HD 
DOCKED: BRANCH  12  15
DOCKED: ATOM     15  C   UNL     1       4.756  25.768  19.663 -0.05 -0.08    +0.130 C  
DOCKED: BRANCH  15  16
DOCKED: ATOM     16  C   UNL     1       6.171  25.571  19.174 -0.09 +0.03    -0.039 A  
DOCKED: ATOM     17  C   UNL     1       7.238  26.234  19.795 -0.09 -0.00    +0.004 A  
DOCKED: ATOM     18  C   UNL     1       8.553  26.002  19.383 -0.11 -0.00    +0.000 A  
DOCKED: ATOM     19  C   UNL     1       8.815  25.105  18.349 -0.13 -0.00    +0.000 A  
DOCKED: ATOM     20  C   UNL     1       7.761  24.447  17.719 -0.16 -0.00    +0.000 A  
DOCKED: ATOM     21  C   UNL     1       6.446  24.677  18.128 -0.14 -0.00    +0.004 A  
DOCKED: ENDBRANCH  15  16
DOCKED: ENDBRANCH  12  15
DOCKED: ENDBRANCH   6  11
DOCKED: BRANCH  10  22
DOCKED: ATOM     22  C   UNL     1       6.821  32.578  16.133 -0.25 +0.06    +0.327 C  
DOCKED: ATOM     23  O   UNL     1       7.428  33.609  16.385 -0.38 -0.18    -0.249 OA 
DOCKED: BRANCH  22  24
DOCKED: ATOM     24  OXT UNL     1       6.212  32.389  14.936 -0.67 -0.20    -0.479 OA 
DOCKED: ATOM     25  HXT UNL     1       5.696  31.555  14.902 -0.15 -0.10    +0.295 HD 
DOCKED: ENDBRANCH  22  24
DOCKED: ENDBRANCH  10  22
DOCKED: TORSDOF 5
DOCKED: TER
DOCKED: ENDMDL
________________________________________________________________________________


    FINAL DOCKED STATE:
    ________________________


Run:   49 / 50
Time taken for this run:   0.000s

DOCKED: MODEL        49
DOCKED: USER    Run = 49
DOCKED: USER
DOCKED: USER    Estimated Free Energy of Binding    =  -4.60 kcal/mol  [=(1)+(2)+(3)-(4)]
DOCKED: USER
DOCKED: USER    (1) Final Intermolecular Energy     =  -6.09 kcal/mol
DOCKED: USER        vdW + Hbond + desolv Energy     =  -5.37 kcal/mol
DOCKED: USER        Electrostatic Energy            =  -0.73 kcal/mol
DOCKED: USER        Moving Ligand-Fixed Receptor    =  -6.09 kcal/mol
DOCKED: USER        Moving Ligand-Moving Receptor   =  +0.00 kcal/mol
DOCKED: USER    (2) Final Total Internal Energy     =  -1.74 kcal/mol
DOCKED: USER    (3) Torsional Free Energy           =  +1.49 kcal/mol
DOCKED: USER    (4) Unbound System's Energy         =  -1.74 kcal/mol
DOCKED: USER
DOCKED: USER
DOCKED: REMARK  Name = 
DOCKED: REMARK  7 active torsions:
DOCKED: REMARK  status: ('A' for Active; 'I' for Inactive)
DOCKED: REMARK    1  A    between atoms: C_1  and  C_2
DOCKED: REMARK    2  A    between atoms: C_2  and  C_3
DOCKED: REMARK    3  A    between atoms: CA_6  and  N_7
DOCKED: REMARK    4  A    between atoms: C_8  and  C_10
DOCKED: REMARK    5  A    between atoms: C_10  and  C_11
DOCKED: REMARK    6  A    between atoms: CA_20  and  C_21
DOCKED: REMARK    7  A    between atoms: C_21  and  OXT_23
DOCKED: REMARK                            x       y       z     vdW  Elec       q    Type
DOCKED: REMARK                         _______ _______ _______ _____ _____    ______ ____
DOCKED: USER                              x       y       z     vdW  Elec       q    Type
DOCKED: USER                           _______ _______ _______ _____ _____    ______ ____
DOCKED: ROOT
DOCKED: ATOM      1  C   UNL     1       8.982  31.214  18.162 -0.15 -0.02    +0.025 C  
DOCKED: ATOM      2  C   UNL     1       7.495  31.489  18.397 -0.17 -0.03    +0.042 C  
DOCKED: ATOM      3  C   UNL     1       7.306  32.793  19.181 -0.14 -0.01    +0.025 C  
DOCKED: ATOM      4  S   UNL     1       6.789  30.104  19.425 -0.15 +0.13    -0.127 S  
DOCKED: ATOM      5  C   UNL     1       5.090  30.439  18.809 -0.19 -0.19    +0.165 C  
DOCKED: ATOM      6  CA  UNL     1       4.287  29.286  18.163 -0.19 -0.21    +0.190 C  
DOCKED: ATOM      7  C   UNL     1       4.761  29.910  16.830 -0.26 -0.25    +0.240 C  
DOCKED: ATOM      8  O   UNL     1       4.811  29.614  15.659 -0.67 +0.15    -0.273 OA 
DOCKED: ATOM      9  N   UNL     1       5.309  30.994  17.452 -0.21 +0.25    -0.271 N  
DOCKED: ATOM     10  CA  UNL     1       6.680  31.387  17.097 -0.25 -0.15    +0.201 C  
DOCKED: ENDROOT
DOCKED: BRANCH   6  11
DOCKED: ATOM     11  N   UNL     1       4.720  27.898  18.458 -0.03 +0.38    -0.301 N  
DOCKED: ATOM     12  C   UNL     1       4.174  27.214  19.523 -0.05 -0.17    +0.218 C  
DOCKED: ATOM     13  O   UNL     1       3.316  27.716  20.247 -0.02 +0.17    -0.275 OA 
DOCKED: ATOM     14  H   UNL     1       5.408  27.433  17.876 -0.42 -0.36    +0.150 HD 
DOCKED: BRANCH  12  15
DOCKED: ATOM     15  C   UNL     1       4.709  25.812  19.734 -0.05 -0.08    +0.130 C  
DOCKED: BRANCH  15  16
DOCKED: ATOM     16  C   UNL     1       5.134  25.128  18.457 -0.09 +0.03    -0.039 A  
DOCKED: ATOM     17  C   UNL     1       6.420  24.585  18.333 -0.13 -0.00    +0.004 A  
DOCKED: ATOM     18  C   UNL     1       6.790  23.897  17.176 -0.20 -0.00    +0.000 A  
DOCKED: ATOM     19  C   UNL     1       5.880  23.742  16.131 -0.24 -0.00    +0.000 A  
DOCKED: ATOM     20  C   UNL     1       4.602  24.286  16.240 -0.23 -0.00    +0.000 A  
DOCKED: ATOM     21  C   UNL     1       4.229  24.974  17.396 -0.13 -0.00    +0.004 A  
DOCKED: ENDBRANCH  15  16
DOCKED: ENDBRANCH  12  15
DOCKED: ENDBRANCH   6  11
DOCKED: BRANCH  10  22
DOCKED: ATOM     22  C   UNL     1       6.696  32.622  16.192 -0.25 +0.06    +0.327 C  
DOCKED: ATOM     23  O   UNL     1       7.414  33.595  16.364 -0.38 -0.18    -0.249 OA 
DOCKED: BRANCH  22  24
DOCKED: ATOM     24  OXT UNL     1       5.938  32.489  15.075 -0.64 -0.17    -0.479 OA 
DOCKED: ATOM     25  HXT UNL     1       5.528  31.600  15.000 -0.14 -0.10    +0.295 HD 
DOCKED: ENDBRANCH  22  24
DOCKED: ENDBRANCH  10  22
DOCKED: TORSDOF 5
DOCKED: TER
DOCKED: ENDMDL
________________________________________________________________________________


    FINAL DOCKED STATE:
    ________________________


Run:   50 / 50
Time taken for this run:   0.000s

DOCKED: MODEL        50
DOCKED: USER    Run = 50
DOCKED: USER
DOCKED: USER    Estimated Free Energy of Binding    =  -3.46 kcal/mol  [=(1)+(2)+(3)-(4)]
DOCKED: USER
DOCKED: USER    (1) Final Intermolecular Energy     =  -4.95 kcal/mol
DOCKED: USER        vdW + Hbond + desolv Energy     =  -4.58 kcal/mol
DOCKED: USER        Electrostatic Energy            =  -0.37 kcal/mol
DOCKED: USER        Moving Ligand-Fixed Receptor    =  -4.95 kcal/mol
DOCKED: USER        Moving Ligand-Moving Receptor   =  +0.00 kcal/mol
DOCKED: USER    (2) Final Total Internal Energy     =  -1.83 kcal/mol
DOCKED: USER    (3) Torsional Free Energy           =  +1.49 kcal/mol
DOCKED: USER    (4) Unbound System's Energy         =  -1.83 kcal/mol
DOCKED: USER
DOCKED: USER
DOCKED: REMARK  Name = 
DOCKED: REMARK  7 active torsions:
DOCKED: REMARK  status: ('A' for Active; 'I' for Inactive)
DOCKED: REMARK    1  A    between atoms: C_1  and  C_2
DOCKED: REMARK    2  A    between atoms: C_2  and  C_3
DOCKED: REMARK    3  A    between atoms: CA_6  and  N_7
DOCKED: REMARK    4  A    between atoms: C_8  and  C_10
DOCKED: REMARK    5  A    between atoms: C_10  and  C_11
DOCKED: REMARK    6  A    between atoms: CA_20  and  C_21
DOCKED: REMARK    7  A    between atoms: C_21  and  OXT_23
DOCKED: REMARK                            x       y       z     vdW  Elec       q    Type
DOCKED: REMARK                         _______ _______ _______ _____ _____    ______ ____
DOCKED: USER                              x       y       z     vdW  Elec       q    Type
DOCKED: USER                           _______ _______ _______ _____ _____    ______ ____
DOCKED: ROOT
DOCKED: ATOM      1  C   UNL     1      16.137  32.224  14.667 -0.19 -0.01    +0.025 C  
DOCKED: ATOM      2  C   UNL     1      17.551  32.328  14.093 -0.12 -0.03    +0.042 C  
DOCKED: ATOM      3  C   UNL     1      18.540  32.776  15.176 -0.03 -0.01    +0.025 C  
DOCKED: ATOM      4  S   UNL     1      17.557  33.624  12.753 -0.10 +0.11    -0.127 S  
DOCKED: ATOM      5  C   UNL     1      19.039  32.879  11.962 -0.09 -0.10    +0.165 C  
DOCKED: ATOM      6  CA  UNL     1      18.975  32.489  10.467 -0.16 -0.11    +0.190 C  
DOCKED: ATOM      7  C   UNL     1      18.700  31.068  11.009 -0.21 -0.22    +0.240 C  
DOCKED: ATOM      8  O   UNL     1      18.307  30.002  10.596 -0.41 +0.26    -0.273 OA 
DOCKED: ATOM      9  N   UNL     1      18.935  31.439  12.301 -0.10 +0.21    -0.271 N  
DOCKED: ATOM     10  CA  UNL     1      17.956  31.057  13.329 -0.06 -0.21    +0.201 C  
DOCKED: ENDROOT
DOCKED: BRANCH   6  11
DOCKED: ATOM     11  N   UNL     1      17.918  33.120   9.639 -0.10 +0.20    -0.301 N  
DOCKED: ATOM     12  C   UNL     1      18.259  33.882   8.542 +0.02 +0.01    +0.218 C  
DOCKED: ATOM     13  O   UNL     1      19.430  34.055   8.211 -0.43 -0.12    -0.275 OA 
DOCKED: ATOM     14  H   UNL     1      16.936  32.987   9.859 -0.36 -0.26    +0.150 HD 
DOCKED: BRANCH  12  15
DOCKED: ATOM     15  C   UNL     1      17.093  34.488   7.788 -0.21 +0.00    +0.130 C  
DOCKED: BRANCH  15  16
DOCKED: ATOM     16  C   UNL     1      15.799  34.479   8.565 -0.25 +0.01    -0.039 A  
DOCKED: ATOM     17  C   UNL     1      14.710  33.714   8.127 -0.34 -0.00    +0.004 A  
DOCKED: ATOM     18  C   UNL     1      13.534  33.656   8.880 -0.42 -0.00    +0.000 A  
DOCKED: ATOM     19  C   UNL     1      13.437  34.360  10.079 -0.31 -0.00    +0.000 A  
DOCKED: ATOM     20  C   UNL     1      14.510  35.131  10.520 -0.16 -0.00    +0.000 A  
DOCKED: ATOM     21  C   UNL     1      15.685  35.191   9.769 -0.13 -0.00    +0.004 A  
DOCKED: ENDBRANCH  15  16
DOCKED: ENDBRANCH  12  15
DOCKED: ENDBRANCH   6  11
DOCKED: BRANCH  10  22
DOCKED: ATOM     22  C   UNL     1      18.460  29.889  14.180 -0.13 -0.15    +0.327 C  
DOCKED: ATOM     23  O   UNL     1      18.294  29.792  15.387 -0.08 +0.06    -0.249 OA 
DOCKED: BRANCH  22  24
DOCKED: ATOM     24  OXT UNL     1      18.992  28.875  13.453 -0.01 +0.21    -0.479 OA 
DOCKED: ATOM     25  HXT UNL     1      18.667  28.862  12.527 -0.22 -0.23    +0.295 HD 
DOCKED: ENDBRANCH  22  24
DOCKED: ENDBRANCH  10  22
DOCKED: TORSDOF 5
DOCKED: TER
DOCKED: ENDMDL
________________________________________________________________________________


    CLUSTERING HISTOGRAM
    ____________________


________________________________________________________________________________
     |           |     |           |     |
Clus | Lowest    | Run | Mean      | Num | Histogram
-ter | Binding   |     | Binding   | in  |
Rank | Energy    |     | Energy    | Clus|    5    10   15   20   25   30   35
_____|___________|_____|___________|_____|____:____|____:____|____:____|____:___
   1 |     -4.74 |  41 |     -4.39 |  18 |##################
   2 |     -4.26 |  31 |     -4.04 |   4 |####
   3 |     -4.09 |  33 |     -4.09 |   1 |#
   4 |     -3.80 |  27 |     -3.79 |   2 |##
   5 |     -3.66 |  45 |     -3.64 |  13 |#############
   6 |     -3.60 |  42 |     -3.60 |   1 |#
   7 |     -3.49 |   8 |     -3.48 |   5 |#####
   8 |     -3.46 |  50 |     -3.46 |   1 |#
   9 |     -3.42 |   6 |     -3.41 |   3 |###
  10 |     -3.42 |  23 |     -3.42 |   1 |#
  11 |     -3.41 |  34 |     -3.41 |   1 |#
_____|___________|_____|___________|_____|______________________________________


    RMSD TABLE
    __________


_______________________________________________________________________
     |      |      |           |         |                 |
Rank | Sub- | Run  | Binding   | Cluster | Reference       | Grep
     | Rank |      | Energy    | RMSD    | RMSD            | Pattern
_____|______|______|___________|_________|_________________|___________
   1      1     41       -4.74      0.00     34.65           RANKING
   1      2     44       -4.69      1.69     33.75           RANKING
   1      3     19       -4.64      0.94     34.13           RANKING
   1      4     47       -4.62      1.35     34.07           RANKING
   1      5     49       -4.60      1.48     33.97           RANKING
   1      6     40       -4.54      0.59     34.62           RANKING
   1      7     28       -4.53      1.47     33.97           RANKING
   1      8      9       -4.47      1.40     34.10           RANKING
   1      9     36       -4.46      0.68     34.51           RANKING
   1     10     29       -4.33      0.64     34.68           RANKING
   1     11     48       -4.32      0.79     34.49           RANKING
   1     12     24       -4.32      0.70     34.61           RANKING
   1     13     32       -4.28      0.74     34.62           RANKING
   1     14     18       -4.27      0.80     34.53           RANKING
   1     15      1       -4.22      0.77     34.62           RANKING
   1     16     35       -4.13      0.84     34.55           RANKING
   1     17     11       -4.00      0.92     34.88           RANKING
   1     18     14       -3.80      0.97     34.59           RANKING
   2      1     31       -4.26      0.00     39.05           RANKING
   2      2      2       -4.20      0.72     38.77           RANKING
   2      3      3       -4.06      0.74     39.07           RANKING
   2      4     15       -3.63      1.80     39.06           RANKING
   3      1     33       -4.09      0.00     28.37           RANKING
   4      1     27       -3.80      0.00     39.12           RANKING
   4      2     20       -3.79      0.21     39.10           RANKING
   5      1     45       -3.66      0.00     31.27           RANKING
   5      2     12       -3.66      0.09     31.25           RANKING
   5      3      4       -3.65      0.09     31.25           RANKING
   5      4     39       -3.65      0.11     31.26           RANKING
   5      5     46       -3.65      0.11     31.25           RANKING
   5      6     10       -3.65      0.12     31.24           RANKING
   5      7     17       -3.65      0.09     31.25           RANKING
   5      8     25       -3.65      0.11     31.24           RANKING
   5      9     30       -3.65      0.10     31.24           RANKING
   5     10      5       -3.65      0.19     31.19           RANKING
   5     11     22       -3.64      0.42     31.32           RANKING
   5     12     43       -3.60      0.11     31.27           RANKING
   5     13     13       -3.58      0.21     31.20           RANKING
   6      1     42       -3.60      0.00     39.16           RANKING
   7      1      8       -3.49      0.00     31.84           RANKING
   7      2     21       -3.49      0.06     31.85           RANKING
   7      3     16       -3.48      0.05     31.84           RANKING
   7      4     26       -3.47      0.29     32.00           RANKING
   7      5     37       -3.46      0.12     31.82           RANKING
   8      1     50       -3.46      0.00     38.50           RANKING
   9      1      6       -3.42      0.00     32.27           RANKING
   9      2      7       -3.42      0.04     32.26           RANKING
   9      3     38       -3.39      0.15     32.27           RANKING
  10      1     23       -3.42      0.00     30.52           RANKING
  11      1     34       -3.41      0.00     38.71           RANKING

Run time 0.920 sec
Idle time 0.340 sec
