AutoDock-GPU version: v1.6-14-g28a61394827e4a7cc1a0c277bf23f1fdc917bb4f

**********************************************************
**    AutoDock-GPU AUTODOCKTOOLS-COMPATIBLE DLG FILE    **
**********************************************************


    DOCKING PARAMETERS
    ________________________


Ligand file:                               ligands_nrun50/0/ligand5.pdbqt
Grid fld file:                             2g76/2g76.maps.fld

Random seed:                               0
Number of runs:                            50
Number of energy evaluations:              1164916
Number of generations:                     42000
Size of population:                        150
Rate of crossover:                         80.000000%
Tournament selection probability limit:    60.000000%
Rate of mutation:                          2.000000%
Maximal allowed delta movement:            +/- 6.000000A
Maximal allowed delta angle:               +/- 90.000000

Rate of local search:                      100.000000%
Maximal number of local search iterations: 300
Rho lower bound:                           0.010000
Spread of local search delta movement:     2.000000A
Spread of local search delta angle:        74.999999
Limit of consecutive successes/failures:   4

Handle symmetry during clustering:         YES
RMSD tolerance:                            2.000000A

Program call in command line was:          ../bin/autodock_gpu_128wi -M 2g76/2g76.maps.fld -L ligands_nrun50/0/ligand5.pdbqt -N outs_nrun50/ligand5 -nrun 50 -s 0 


    GRID PARAMETERS
    ________________________


Receptor name:                             2g76
Number of grid points (x, y, z):           61, 61, 61
Grid center (x, y, z):                     14.547000, 25.866000, 14.134000A
Grid size (x, y, z):                       22.500000, 22.500000, 22.500000A
Grid spacing:                              0.375000A


    LIGAND PARAMETERS
    ________________________


Ligand name:                               ligands_nrun50/0/ligand5
Number of atoms:                           38
Number of rotatable bonds:                 10
Number of atom types:                      7


    DUMMY DATA (only for ADT-compatibility)
    ________________________


DPF> outlev 1
DPF> ga_run 50
DPF> fld 2g76/2g76.maps.fld
DPF> move ligands_nrun50/0/ligand5.pdbqt


    COUNTER STATES
    ________________________


Number of energy evaluations performed:    799580
Number of generations used:                60


    INPUT LIGAND PDBQT FILE:
    ________________________


INPUT-LIGAND-PDBQT: REMARK  Name = 
INPUT-LIGAND-PDBQT: REMARK  14 active torsions:
INPUT-LIGAND-PDBQT: REMARK  status: ('A' for Active; 'I' for Inactive)
INPUT-LIGAND-PDBQT: REMARK    1  A    between atoms: C_1  and  C_2
INPUT-LIGAND-PDBQT: REMARK    2  A    between atoms: C_6  and  C_7
INPUT-LIGAND-PDBQT: REMARK    3  A    between atoms: C_10  and  C_11
INPUT-LIGAND-PDBQT: REMARK    4  A    between atoms: C_11  and  N_12
INPUT-LIGAND-PDBQT: REMARK    5  A    between atoms: C_13  and  C_15
INPUT-LIGAND-PDBQT: REMARK    6  A    between atoms: C_17  and  O_18
INPUT-LIGAND-PDBQT: REMARK    7  A    between atoms: C_21  and  C_23
INPUT-LIGAND-PDBQT: REMARK    8  A    between atoms: C_23  and  N_24
INPUT-LIGAND-PDBQT: REMARK    9  A    between atoms: C_23  and  C_29
INPUT-LIGAND-PDBQT: REMARK   10  A    between atoms: C_25  and  C_27
INPUT-LIGAND-PDBQT: REMARK   11  A    between atoms: C_27  and  O_28
INPUT-LIGAND-PDBQT: REMARK   12  A    between atoms: C_29  and  C_30
INPUT-LIGAND-PDBQT: REMARK   13  A    between atoms: C_29  and  C_31
INPUT-LIGAND-PDBQT: REMARK   14  A    between atoms: C_29  and  C_32
INPUT-LIGAND-PDBQT: REMARK                            x       y       z     vdW  Elec       q    Type
INPUT-LIGAND-PDBQT: REMARK                         _______ _______ _______ _____ _____    ______ ____
INPUT-LIGAND-PDBQT: ROOT
INPUT-LIGAND-PDBQT: ATOM      1  C   UNL     1      -3.179  -9.200  -2.252  0.00  0.00    +0.164 C 
INPUT-LIGAND-PDBQT: ATOM      2  C   UNL     1      -4.243  -8.084  -2.353  0.00  0.00    +0.065 C 
INPUT-LIGAND-PDBQT: ATOM      3  C   UNL     1      -3.612  -7.030  -3.236  0.00  0.00    +0.134 C 
INPUT-LIGAND-PDBQT: ATOM      4  C   UNL     1      -2.806  -7.856  -4.232  0.00  0.00    +0.140 C 
INPUT-LIGAND-PDBQT: ATOM      5  N   UNL     1      -2.397  -9.059  -3.502  0.00  0.00    -0.286 N 
INPUT-LIGAND-PDBQT: ATOM      6  C   UNL     1      -1.151  -9.595  -3.817  0.00  0.00    +0.237 C 
INPUT-LIGAND-PDBQT: ATOM      7  O   UNL     1      -0.462  -9.040  -4.680  0.00  0.00    -0.274 OA
INPUT-LIGAND-PDBQT: ENDROOT
INPUT-LIGAND-PDBQT: BRANCH   1   9
INPUT-LIGAND-PDBQT: ATOM      8  N   UNL     1      -5.179 -10.677  -1.910  0.00  0.00    -0.310 N 
INPUT-LIGAND-PDBQT: ATOM      9  C   UNL     1      -3.807 -10.588  -1.952  0.00  0.00    +0.234 C 
INPUT-LIGAND-PDBQT: ATOM     10  O   UNL     1      -3.122 -11.592  -1.759  0.00  0.00    -0.274 OA
INPUT-LIGAND-PDBQT: ATOM     11  H   UNL     1      -5.718  -9.881  -1.598  0.00  0.00    +0.149 HD
INPUT-LIGAND-PDBQT: BRANCH   8  12
INPUT-LIGAND-PDBQT: ATOM     12  C   UNL     1      -5.778 -11.966  -1.687  0.00  0.00    +0.139 C 
INPUT-LIGAND-PDBQT: BRANCH  12  16
INPUT-LIGAND-PDBQT: ATOM     13  C   UNL     1      -9.878 -12.490  -2.987  0.00  0.00    -0.010 A 
INPUT-LIGAND-PDBQT: ATOM     14  C   UNL     1      -9.071 -11.511  -3.591  0.00  0.00    +0.009 A 
INPUT-LIGAND-PDBQT: ATOM     15  C   UNL     1      -7.750 -11.301  -3.172  0.00  0.00    +0.006 A 
INPUT-LIGAND-PDBQT: ATOM     16  C   UNL     1      -7.217 -12.041  -2.110  0.00  0.00    -0.030 A 
INPUT-LIGAND-PDBQT: ATOM     17  C   UNL     1      -8.022 -13.002  -1.494  0.00  0.00    +0.006 A 
INPUT-LIGAND-PDBQT: ATOM     18  C   UNL     1      -9.323 -13.230  -1.936  0.00  0.00    +0.009 A 
INPUT-LIGAND-PDBQT: BRANCH  13  24
INPUT-LIGAND-PDBQT: ATOM     19  C   UNL     1     -12.510 -13.472  -1.283  0.00  0.00    +0.067 C 
INPUT-LIGAND-PDBQT: ATOM     20  C   UNL     1     -12.380 -13.210  -2.744  0.00  0.00    +0.053 A 
INPUT-LIGAND-PDBQT: ATOM     21  N   UNL     1     -13.513 -13.418  -3.514  0.00  0.00    -0.252 NA
INPUT-LIGAND-PDBQT: ATOM     22  C   UNL     1     -13.254 -13.152  -4.771  0.00  0.00    +0.156 A 
INPUT-LIGAND-PDBQT: ATOM     23  S   UNL     1     -11.662 -12.643  -5.118  0.00  0.00    -0.075 S 
INPUT-LIGAND-PDBQT: ATOM     24  C   UNL     1     -11.252 -12.775  -3.441  0.00  0.00    +0.042 A 
INPUT-LIGAND-PDBQT: ENDBRANCH  13  24
INPUT-LIGAND-PDBQT: ENDBRANCH  12  16
INPUT-LIGAND-PDBQT: ENDBRANCH   8  12
INPUT-LIGAND-PDBQT: ENDBRANCH   1   9
INPUT-LIGAND-PDBQT: BRANCH   3  25
INPUT-LIGAND-PDBQT: ATOM     25  O   UNL     1      -2.804  -6.181  -2.430  0.00  0.00    -0.390 OA
INPUT-LIGAND-PDBQT: ATOM     26  H   UNL     1      -1.892  -6.514  -2.444  0.00  0.00    +0.210 HD
INPUT-LIGAND-PDBQT: ENDBRANCH   3  25
INPUT-LIGAND-PDBQT: BRANCH   6  27
INPUT-LIGAND-PDBQT: ATOM     27  C   UNL     1      -0.645 -10.891  -3.114  0.00  0.00    +0.164 C 
INPUT-LIGAND-PDBQT: BRANCH  27  28
INPUT-LIGAND-PDBQT: ATOM     28  N   UNL     1      -1.294 -12.103  -3.627  0.00  0.00    -0.302 N 
INPUT-LIGAND-PDBQT: ATOM     29  C   UNL     1      -1.414 -12.467  -4.946  0.00  0.00    +0.239 C 
INPUT-LIGAND-PDBQT: ATOM     30  O   UNL     1      -1.240 -11.716  -5.897  0.00  0.00    -0.273 OA
INPUT-LIGAND-PDBQT: ATOM     31  H   UNL     1      -1.564 -12.800  -2.937  0.00  0.00    +0.150 HD
INPUT-LIGAND-PDBQT: BRANCH  29  32
INPUT-LIGAND-PDBQT: ATOM     32  C   UNL     1      -1.811 -13.935  -5.134  0.00  0.00    +0.251 C 
INPUT-LIGAND-PDBQT: BRANCH  32  33
INPUT-LIGAND-PDBQT: ATOM     33  O   UNL     1      -1.172 -14.782  -4.185  0.00  0.00    -0.386 OA
INPUT-LIGAND-PDBQT: ATOM     34  H   UNL     1      -0.214 -14.663  -4.322  0.00  0.00    +0.210 HD
INPUT-LIGAND-PDBQT: ENDBRANCH  32  33
INPUT-LIGAND-PDBQT: ENDBRANCH  29  32
INPUT-LIGAND-PDBQT: ENDBRANCH  27  28
INPUT-LIGAND-PDBQT: BRANCH  27  35
INPUT-LIGAND-PDBQT: ATOM     35  C   UNL     1       0.914 -11.040  -3.003  0.00  0.00    -0.011 C 
INPUT-LIGAND-PDBQT: ATOM     36  C   UNL     1       1.488  -9.813  -2.261  0.00  0.00    +0.013 C 
INPUT-LIGAND-PDBQT: ATOM     37  C   UNL     1       1.266 -12.286  -2.151  0.00  0.00    +0.013 C 
INPUT-LIGAND-PDBQT: ATOM     38  C   UNL     1       1.627 -11.197  -4.357  0.00  0.00    +0.013 C 
INPUT-LIGAND-PDBQT: ENDBRANCH  27  35
INPUT-LIGAND-PDBQT: ENDBRANCH   6  27
INPUT-LIGAND-PDBQT: TORSDOF 10


    FINAL DOCKED STATE:
    ________________________


Run:   1 / 50
Time taken for this run:   0.000s

DOCKED: MODEL        1
DOCKED: USER    Run = 1
DOCKED: USER
DOCKED: USER    Estimated Free Energy of Binding    =  -4.33 kcal/mol  [=(1)+(2)+(3)-(4)]
DOCKED: USER
DOCKED: USER    (1) Final Intermolecular Energy     =  -7.31 kcal/mol
DOCKED: USER        vdW + Hbond + desolv Energy     =  -6.83 kcal/mol
DOCKED: USER        Electrostatic Energy            =  -0.48 kcal/mol
DOCKED: USER        Moving Ligand-Fixed Receptor    =  -7.31 kcal/mol
DOCKED: USER        Moving Ligand-Moving Receptor   =  +0.00 kcal/mol
DOCKED: USER    (2) Final Total Internal Energy     =  -3.74 kcal/mol
DOCKED: USER    (3) Torsional Free Energy           =  +2.98 kcal/mol
DOCKED: USER    (4) Unbound System's Energy         =  -3.74 kcal/mol
DOCKED: USER
DOCKED: USER
DOCKED: REMARK  Name = 
DOCKED: REMARK  14 active torsions:
DOCKED: REMARK  status: ('A' for Active; 'I' for Inactive)
DOCKED: REMARK    1  A    between atoms: C_1  and  C_2
DOCKED: REMARK    2  A    between atoms: C_6  and  C_7
DOCKED: REMARK    3  A    between atoms: C_10  and  C_11
DOCKED: REMARK    4  A    between atoms: C_11  and  N_12
DOCKED: REMARK    5  A    between atoms: C_13  and  C_15
DOCKED: REMARK    6  A    between atoms: C_17  and  O_18
DOCKED: REMARK    7  A    between atoms: C_21  and  C_23
DOCKED: REMARK    8  A    between atoms: C_23  and  N_24
DOCKED: REMARK    9  A    between atoms: C_23  and  C_29
DOCKED: REMARK   10  A    between atoms: C_25  and  C_27
DOCKED: REMARK   11  A    between atoms: C_27  and  O_28
DOCKED: REMARK   12  A    between atoms: C_29  and  C_30
DOCKED: REMARK   13  A    between atoms: C_29  and  C_31
DOCKED: REMARK   14  A    between atoms: C_29  and  C_32
DOCKED: REMARK                            x       y       z     vdW  Elec       q    Type
DOCKED: REMARK                         _______ _______ _______ _____ _____    ______ ____
DOCKED: USER                              x       y       z     vdW  Elec       q    Type
DOCKED: USER                           _______ _______ _______ _____ _____    ______ ____
DOCKED: ROOT
DOCKED: ATOM      1  C   UNL     1      12.842  22.525  17.284 -0.22 -0.01    +0.164 C  
DOCKED: ATOM      2  C   UNL     1      13.081  21.331  16.332 -0.33 -0.01    +0.065 C  
DOCKED: ATOM      3  C   UNL     1      11.870  21.313  15.427 -0.33 -0.00    +0.134 C  
DOCKED: ATOM      4  C   UNL     1      11.549  22.793  15.254 -0.21 +0.02    +0.140 C  
DOCKED: ATOM      5  N   UNL     1      11.971  23.433  16.503 -0.14 -0.02    -0.286 N  
DOCKED: ATOM      6  C   UNL     1      11.208  24.509  16.950 -0.18 -0.01    +0.237 C  
DOCKED: ATOM      7  O   UNL     1      10.229  24.865  16.285 -0.24 +0.05    -0.274 OA 
DOCKED: ENDROOT
DOCKED: BRANCH   1   9
DOCKED: ATOM      8  N   UNL     1      15.311  22.934  17.099 -0.17 +0.03    -0.310 N  
DOCKED: ATOM      9  C   UNL     1      14.168  23.108  17.844 -0.18 -0.01    +0.234 C  
DOCKED: ATOM     10  O   UNL     1      14.220  23.715  18.913 -0.06 +0.02    -0.274 OA 
DOCKED: ATOM     11  H   UNL     1      15.409  22.106  16.528 -0.20 -0.05    +0.149 HD 
DOCKED: BRANCH   8  12
DOCKED: ATOM     12  C   UNL     1      16.538  23.515  17.576 -0.27 -0.02    +0.139 C  
DOCKED: BRANCH  12  16
DOCKED: ATOM     13  C   UNL     1      16.760  27.649  16.298 -0.24 -0.00    -0.010 A  
DOCKED: ATOM     14  C   UNL     1      17.820  26.770  16.017 -0.26 +0.00    +0.009 A  
DOCKED: ATOM     15  C   UNL     1      17.787  25.435  16.442 -0.30 -0.00    +0.006 A  
DOCKED: ATOM     16  C   UNL     1      16.708  24.957  17.194 -0.25 +0.00    -0.030 A  
DOCKED: ATOM     17  C   UNL     1      15.660  25.832  17.492 -0.18 +0.00    +0.006 A  
DOCKED: ATOM     18  C   UNL     1      15.682  27.149  17.038 -0.18 +0.00    +0.009 A  
DOCKED: BRANCH  13  24
DOCKED: ATOM     19  C   UNL     1      15.206  30.280  17.504 -0.10 +0.00    +0.067 C  
DOCKED: ATOM     20  C   UNL     1      16.073  30.172  16.298 -0.13 +0.00    +0.053 A  
DOCKED: ATOM     21  N   UNL     1      16.250  31.329  15.556 -0.16 +0.06    -0.252 NA 
DOCKED: ATOM     22  C   UNL     1      17.029  31.087  14.530 -0.11 -0.10    +0.156 A  
DOCKED: ATOM     23  S   UNL     1      17.596  29.484  14.379 -0.32 +0.03    -0.075 S  
DOCKED: ATOM     24  C   UNL     1      16.737  29.043  15.817 -0.19 +0.00    +0.042 A  
DOCKED: ENDBRANCH  13  24
DOCKED: ENDBRANCH  12  16
DOCKED: ENDBRANCH   8  12
DOCKED: ENDBRANCH   1   9
DOCKED: BRANCH   3  25
DOCKED: ATOM     25  O   UNL     1      10.829  20.586  16.069 -0.17 +0.04    -0.390 OA 
DOCKED: ATOM     26  H   UNL     1      10.453  21.137  16.774 +0.09 -0.03    +0.210 HD 
DOCKED: ENDBRANCH   3  25
DOCKED: BRANCH   6  27
DOCKED: ATOM     27  C   UNL     1      11.600  25.271  18.252 -0.13 -0.03    +0.164 C  
DOCKED: BRANCH  27  28
DOCKED: ATOM     28  N   UNL     1      11.454  26.726  18.121 -0.13 +0.08    -0.302 N  
DOCKED: ATOM     29  C   UNL     1      12.326  27.677  18.591 -0.11 -0.03    +0.239 C  
DOCKED: ATOM     30  O   UNL     1      13.208  27.472  19.414 -0.03 +0.03    -0.273 OA 
DOCKED: ATOM     31  H   UNL     1      10.706  27.054  17.515 -0.10 -0.11    +0.150 HD 
DOCKED: BRANCH  29  32
DOCKED: ATOM     32  C   UNL     1      12.085  29.066  17.990 -0.12 -0.01    +0.251 C  
DOCKED: BRANCH  32  33
DOCKED: ATOM     33  O   UNL     1      11.372  28.995  16.760 -0.56 -0.07    -0.386 OA 
DOCKED: ATOM     34  H   UNL     1      10.433  28.884  17.001 -0.42 -0.35    +0.210 HD 
DOCKED: ENDBRANCH  32  33
DOCKED: ENDBRANCH  29  32
DOCKED: ENDBRANCH  27  28
DOCKED: BRANCH  27  35
DOCKED: ATOM     35  C   UNL     1      10.971  24.717  19.579 -0.06 +0.00    -0.011 C  
DOCKED: ATOM     36  C   UNL     1       9.846  25.668  20.042 -0.07 -0.01    +0.013 C  
DOCKED: ATOM     37  C   UNL     1      10.315  23.338  19.317 -0.05 -0.00    +0.013 C  
DOCKED: ATOM     38  C   UNL     1      11.984  24.530  20.722 -0.02 -0.00    +0.013 C  
DOCKED: ENDBRANCH  27  35
DOCKED: ENDBRANCH   6  27
DOCKED: TORSDOF 10
DOCKED: TER
DOCKED: ENDMDL
________________________________________________________________________________


    FINAL DOCKED STATE:
    ________________________


Run:   2 / 50
Time taken for this run:   0.000s

DOCKED: MODEL        2
DOCKED: USER    Run = 2
DOCKED: USER
DOCKED: USER    Estimated Free Energy of Binding    =  -2.86 kcal/mol  [=(1)+(2)+(3)-(4)]
DOCKED: USER
DOCKED: USER    (1) Final Intermolecular Energy     =  -5.84 kcal/mol
DOCKED: USER        vdW + Hbond + desolv Energy     =  -5.64 kcal/mol
DOCKED: USER        Electrostatic Energy            =  -0.21 kcal/mol
DOCKED: USER        Moving Ligand-Fixed Receptor    =  -5.84 kcal/mol
DOCKED: USER        Moving Ligand-Moving Receptor   =  +0.00 kcal/mol
DOCKED: USER    (2) Final Total Internal Energy     =  -5.00 kcal/mol
DOCKED: USER    (3) Torsional Free Energy           =  +2.98 kcal/mol
DOCKED: USER    (4) Unbound System's Energy         =  -5.00 kcal/mol
DOCKED: USER
DOCKED: USER
DOCKED: REMARK  Name = 
DOCKED: REMARK  14 active torsions:
DOCKED: REMARK  status: ('A' for Active; 'I' for Inactive)
DOCKED: REMARK    1  A    between atoms: C_1  and  C_2
DOCKED: REMARK    2  A    between atoms: C_6  and  C_7
DOCKED: REMARK    3  A    between atoms: C_10  and  C_11
DOCKED: REMARK    4  A    between atoms: C_11  and  N_12
DOCKED: REMARK    5  A    between atoms: C_13  and  C_15
DOCKED: REMARK    6  A    between atoms: C_17  and  O_18
DOCKED: REMARK    7  A    between atoms: C_21  and  C_23
DOCKED: REMARK    8  A    between atoms: C_23  and  N_24
DOCKED: REMARK    9  A    between atoms: C_23  and  C_29
DOCKED: REMARK   10  A    between atoms: C_25  and  C_27
DOCKED: REMARK   11  A    between atoms: C_27  and  O_28
DOCKED: REMARK   12  A    between atoms: C_29  and  C_30
DOCKED: REMARK   13  A    between atoms: C_29  and  C_31
DOCKED: REMARK   14  A    between atoms: C_29  and  C_32
DOCKED: REMARK                            x       y       z     vdW  Elec       q    Type
DOCKED: REMARK                         _______ _______ _______ _____ _____    ______ ____
DOCKED: USER                              x       y       z     vdW  Elec       q    Type
DOCKED: USER                           _______ _______ _______ _____ _____    ______ ____
DOCKED: ROOT
DOCKED: ATOM      1  C   UNL     1      11.558  25.749  17.851 -0.18 -0.02    +0.164 C  
DOCKED: ATOM      2  C   UNL     1      12.682  26.801  17.725 -0.16 +0.01    +0.065 C  
DOCKED: ATOM      3  C   UNL     1      12.002  28.125  17.995 -0.18 -0.01    +0.134 C  
DOCKED: ATOM      4  C   UNL     1      10.963  27.767  19.051 -0.10 -0.08    +0.140 C  
DOCKED: ATOM      5  N   UNL     1      10.584  26.379  18.772 -0.08 +0.16    -0.286 N  
DOCKED: ATOM      6  C   UNL     1       9.259  26.026  19.016 -0.08 -0.20    +0.237 C  
DOCKED: ATOM      7  O   UNL     1       8.481  26.884  19.447 -0.10 +0.31    -0.274 OA 
DOCKED: ENDROOT
DOCKED: BRANCH   1   9
DOCKED: ATOM      8  N   UNL     1      12.991  23.745  17.374 -0.09 -0.01    -0.310 N  
DOCKED: ATOM      9  C   UNL     1      12.103  24.347  18.235 -0.09 -0.02    +0.234 C  
DOCKED: ATOM     10  O   UNL     1      11.771  23.773  19.272 -0.02 +0.05    -0.274 OA 
DOCKED: ATOM     11  H   UNL     1      12.919  23.925  16.382 +0.06 +0.04    +0.149 HD 
DOCKED: BRANCH   8  12
DOCKED: ATOM     12  C   UNL     1      13.547  22.470  17.741 -0.23 -0.01    +0.139 C  
DOCKED: BRANCH  12  16
DOCKED: ATOM     13  C   UNL     1      10.417  19.474  17.700 -0.20 +0.00    -0.010 A  
DOCKED: ATOM     14  C   UNL     1      11.178  19.677  18.864 -0.11 -0.00    +0.009 A  
DOCKED: ATOM     15  C   UNL     1      12.215  20.619  18.897 -0.14 -0.00    +0.006 A  
DOCKED: ATOM     16  C   UNL     1      12.540  21.356  17.752 -0.21 +0.00    -0.030 A  
DOCKED: ATOM     17  C   UNL     1      11.799  21.144  16.587 -0.31 -0.00    +0.006 A  
DOCKED: ATOM     18  C   UNL     1      10.748  20.230  16.569 -0.31 -0.00    +0.009 A  
DOCKED: BRANCH  13  24
DOCKED: ATOM     19  C   UNL     1       7.426  19.829  16.387 -0.24 -0.01    +0.067 C  
DOCKED: ATOM     20  C   UNL     1       8.001  18.663  17.115 -0.21 -0.00    +0.053 A  
DOCKED: ATOM     21  N   UNL     1       7.168  17.569  17.288 -0.12 +0.01    -0.252 NA 
DOCKED: ATOM     22  C   UNL     1       7.801  16.625  17.942 -0.10 -0.00    +0.156 A  
DOCKED: ATOM     23  S   UNL     1       9.410  16.973  18.392 -0.26 +0.00    -0.075 S  
DOCKED: ATOM     24  C   UNL     1       9.284  18.532  17.649 -0.20 -0.00    +0.042 A  
DOCKED: ENDBRANCH  13  24
DOCKED: ENDBRANCH  12  16
DOCKED: ENDBRANCH   8  12
DOCKED: ENDBRANCH   1   9
DOCKED: BRANCH   3  25
DOCKED: ATOM     25  O   UNL     1      11.427  28.600  16.783 -0.51 -0.09    -0.390 OA 
DOCKED: ATOM     26  H   UNL     1      10.464  28.655  16.896 -0.41 -0.34    +0.210 HD 
DOCKED: ENDBRANCH   3  25
DOCKED: BRANCH   6  27
DOCKED: ATOM     27  C   UNL     1       8.772  24.565  18.778 -0.10 -0.09    +0.164 C  
DOCKED: BRANCH  27  28
DOCKED: ATOM     28  N   UNL     1       9.355  23.964  17.572 -0.09 +0.12    -0.302 N  
DOCKED: ATOM     29  C   UNL     1       8.697  23.694  16.397 -0.20 -0.09    +0.239 C  
DOCKED: ATOM     30  O   UNL     1       7.480  23.665  16.267 -0.22 +0.14    -0.273 OA 
DOCKED: ATOM     31  H   UNL     1      10.366  23.857  17.562 +0.05 -0.04    +0.150 HD 
DOCKED: BRANCH  29  32
DOCKED: ATOM     32  C   UNL     1       9.645  23.410  15.226 -0.26 -0.03    +0.251 C  
DOCKED: BRANCH  32  33
DOCKED: ATOM     33  O   UNL     1      10.958  23.898  15.478 -0.20 -0.05    -0.386 OA 
DOCKED: ATOM     34  H   UNL     1      11.556  23.350  14.936 +0.10 +0.06    +0.210 HD 
DOCKED: ENDBRANCH  32  33
DOCKED: ENDBRANCH  29  32
DOCKED: ENDBRANCH  27  28
DOCKED: BRANCH  27  35
DOCKED: ATOM     35  C   UNL     1       8.843  23.613  20.024 -0.03 +0.00    -0.011 C  
DOCKED: ATOM     36  C   UNL     1       9.714  24.272  21.115 -0.01 -0.00    +0.013 C  
DOCKED: ATOM     37  C   UNL     1       7.427  23.428  20.629 -0.02 -0.00    +0.013 C  
DOCKED: ATOM     38  C   UNL     1       9.391  22.210  19.711 -0.04 -0.00    +0.013 C  
DOCKED: ENDBRANCH  27  35
DOCKED: ENDBRANCH   6  27
DOCKED: TORSDOF 10
DOCKED: TER
DOCKED: ENDMDL
________________________________________________________________________________


    FINAL DOCKED STATE:
    ________________________


Run:   3 / 50
Time taken for this run:   0.000s

DOCKED: MODEL        3
DOCKED: USER    Run = 3
DOCKED: USER
DOCKED: USER    Estimated Free Energy of Binding    =  -3.05 kcal/mol  [=(1)+(2)+(3)-(4)]
DOCKED: USER
DOCKED: USER    (1) Final Intermolecular Energy     =  -6.04 kcal/mol
DOCKED: USER        vdW + Hbond + desolv Energy     =  -5.73 kcal/mol
DOCKED: USER        Electrostatic Energy            =  -0.30 kcal/mol
DOCKED: USER        Moving Ligand-Fixed Receptor    =  -6.04 kcal/mol
DOCKED: USER        Moving Ligand-Moving Receptor   =  +0.00 kcal/mol
DOCKED: USER    (2) Final Total Internal Energy     =  -5.11 kcal/mol
DOCKED: USER    (3) Torsional Free Energy           =  +2.98 kcal/mol
DOCKED: USER    (4) Unbound System's Energy         =  -5.11 kcal/mol
DOCKED: USER
DOCKED: USER
DOCKED: REMARK  Name = 
DOCKED: REMARK  14 active torsions:
DOCKED: REMARK  status: ('A' for Active; 'I' for Inactive)
DOCKED: REMARK    1  A    between atoms: C_1  and  C_2
DOCKED: REMARK    2  A    between atoms: C_6  and  C_7
DOCKED: REMARK    3  A    between atoms: C_10  and  C_11
DOCKED: REMARK    4  A    between atoms: C_11  and  N_12
DOCKED: REMARK    5  A    between atoms: C_13  and  C_15
DOCKED: REMARK    6  A    between atoms: C_17  and  O_18
DOCKED: REMARK    7  A    between atoms: C_21  and  C_23
DOCKED: REMARK    8  A    between atoms: C_23  and  N_24
DOCKED: REMARK    9  A    between atoms: C_23  and  C_29
DOCKED: REMARK   10  A    between atoms: C_25  and  C_27
DOCKED: REMARK   11  A    between atoms: C_27  and  O_28
DOCKED: REMARK   12  A    between atoms: C_29  and  C_30
DOCKED: REMARK   13  A    between atoms: C_29  and  C_31
DOCKED: REMARK   14  A    between atoms: C_29  and  C_32
DOCKED: REMARK                            x       y       z     vdW  Elec       q    Type
DOCKED: REMARK                         _______ _______ _______ _____ _____    ______ ____
DOCKED: USER                              x       y       z     vdW  Elec       q    Type
DOCKED: USER                           _______ _______ _______ _____ _____    ______ ____
DOCKED: ROOT
DOCKED: ATOM      1  C   UNL     1      11.583  24.522  17.393 -0.18 -0.01    +0.164 C  
DOCKED: ATOM      2  C   UNL     1      12.548  25.711  17.602 -0.18 +0.01    +0.065 C  
DOCKED: ATOM      3  C   UNL     1      11.651  26.876  17.958 -0.20 -0.02    +0.134 C  
DOCKED: ATOM      4  C   UNL     1      10.544  26.219  18.774 -0.12 -0.08    +0.140 C  
DOCKED: ATOM      5  N   UNL     1      10.413  24.863  18.235 -0.08 +0.10    -0.286 N  
DOCKED: ATOM      6  C   UNL     1       9.133  24.313  18.214 -0.11 -0.12    +0.237 C  
DOCKED: ATOM      7  O   UNL     1       8.188  24.983  18.643 -0.12 +0.21    -0.274 OA 
DOCKED: ENDROOT
DOCKED: BRANCH   1   9
DOCKED: ATOM      8  N   UNL     1      11.699  22.304  18.561 -0.03 +0.05    -0.310 N  
DOCKED: ATOM      9  C   UNL     1      12.271  23.153  17.642 -0.13 -0.02    +0.234 C  
DOCKED: ATOM     10  O   UNL     1      13.293  22.813  17.046 -0.19 -0.00    -0.274 OA 
DOCKED: ATOM     11  H   UNL     1      11.205  22.691  19.353 +0.03 -0.03    +0.149 HD 
DOCKED: BRANCH   8  12
DOCKED: ATOM     12  C   UNL     1      12.294  21.010  18.764 -0.13 -0.02    +0.139 C  
DOCKED: BRANCH  12  16
DOCKED: ATOM     13  C   UNL     1       9.261  17.949  18.303 -0.19 +0.00    -0.010 A  
DOCKED: ATOM     14  C   UNL     1       9.853  18.166  19.559 -0.12 -0.00    +0.009 A  
DOCKED: ATOM     15  C   UNL     1      10.856  19.130  19.731 -0.11 -0.00    +0.006 A  
DOCKED: ATOM     16  C   UNL     1      11.318  19.875  18.640 -0.10 +0.00    -0.030 A  
DOCKED: ATOM     17  C   UNL     1      10.746  19.649  17.386 -0.19 -0.00    +0.006 A  
DOCKED: ATOM     18  C   UNL     1       9.727  18.714  17.226 -0.26 -0.00    +0.009 A  
DOCKED: BRANCH  13  24
DOCKED: ATOM     19  C   UNL     1       6.285  18.372  16.978 -0.22 -0.01    +0.067 C  
DOCKED: ATOM     20  C   UNL     1       6.889  17.140  17.558 -0.18 -0.00    +0.053 A  
DOCKED: ATOM     21  N   UNL     1       6.096  16.004  17.563 -0.15 +0.00    -0.252 NA 
DOCKED: ATOM     22  C   UNL     1       6.751  15.004  18.100 -0.15 +0.01    +0.156 A  
DOCKED: ATOM     23  S   UNL     1       8.337  15.344  18.631 -0.25 -0.00    -0.075 S  
DOCKED: ATOM     24  C   UNL     1       8.166  16.983  18.099 -0.14 -0.00    +0.042 A  
DOCKED: ENDBRANCH  13  24
DOCKED: ENDBRANCH  12  16
DOCKED: ENDBRANCH   8  12
DOCKED: ENDBRANCH   1   9
DOCKED: BRANCH   3  25
DOCKED: ATOM     25  O   UNL     1      11.180  27.476  16.757 -0.56 -0.02    -0.390 OA 
DOCKED: ATOM     26  H   UNL     1      10.452  28.080  16.975 -0.37 -0.34    +0.210 HD 
DOCKED: ENDBRANCH   3  25
DOCKED: BRANCH   6  27
DOCKED: ATOM     27  C   UNL     1       8.901  22.865  17.687 -0.11 -0.05    +0.164 C  
DOCKED: BRANCH  27  28
DOCKED: ATOM     28  N   UNL     1       8.107  22.047  18.610 -0.01 +0.08    -0.302 N  
DOCKED: ATOM     29  C   UNL     1       8.411  21.770  19.921 -0.01 -0.05    +0.239 C  
DOCKED: ATOM     30  O   UNL     1       9.510  21.937  20.434 -0.01 +0.06    -0.273 OA 
DOCKED: ATOM     31  H   UNL     1       7.183  21.767  18.290 +0.03 -0.04    +0.150 HD 
DOCKED: BRANCH  29  32
DOCKED: ATOM     32  C   UNL     1       7.226  21.204  20.710 -0.00 -0.05    +0.251 C  
DOCKED: BRANCH  32  33
DOCKED: ATOM     33  O   UNL     1       6.236  20.649  19.851 +0.00 +0.08    -0.386 OA 
DOCKED: ATOM     34  H   UNL     1       6.574  19.775  19.581 +0.02 -0.03    +0.210 HD 
DOCKED: ENDBRANCH  32  33
DOCKED: ENDBRANCH  29  32
DOCKED: ENDBRANCH  27  28
DOCKED: BRANCH  27  35
DOCKED: ATOM     35  C   UNL     1       8.406  22.754  16.201 -0.34 +0.00    -0.011 C  
DOCKED: ATOM     36  C   UNL     1       8.180  21.266  15.853 -0.36 -0.00    +0.013 C  
DOCKED: ATOM     37  C   UNL     1       7.038  23.465  16.046 -0.21 -0.01    +0.013 C  
DOCKED: ATOM     38  C   UNL     1       9.364  23.378  15.172 -0.31 -0.00    +0.013 C  
DOCKED: ENDBRANCH  27  35
DOCKED: ENDBRANCH   6  27
DOCKED: TORSDOF 10
DOCKED: TER
DOCKED: ENDMDL
________________________________________________________________________________


    FINAL DOCKED STATE:
    ________________________


Run:   4 / 50
Time taken for this run:   0.000s

DOCKED: MODEL        4
DOCKED: USER    Run = 4
DOCKED: USER
DOCKED: USER    Estimated Free Energy of Binding    =  -3.18 kcal/mol  [=(1)+(2)+(3)-(4)]
DOCKED: USER
DOCKED: USER    (1) Final Intermolecular Energy     =  -6.16 kcal/mol
DOCKED: USER        vdW + Hbond + desolv Energy     =  -5.76 kcal/mol
DOCKED: USER        Electrostatic Energy            =  -0.40 kcal/mol
DOCKED: USER        Moving Ligand-Fixed Receptor    =  -6.16 kcal/mol
DOCKED: USER        Moving Ligand-Moving Receptor   =  +0.00 kcal/mol
DOCKED: USER    (2) Final Total Internal Energy     =  -4.78 kcal/mol
DOCKED: USER    (3) Torsional Free Energy           =  +2.98 kcal/mol
DOCKED: USER    (4) Unbound System's Energy         =  -4.78 kcal/mol
DOCKED: USER
DOCKED: USER
DOCKED: REMARK  Name = 
DOCKED: REMARK  14 active torsions:
DOCKED: REMARK  status: ('A' for Active; 'I' for Inactive)
DOCKED: REMARK    1  A    between atoms: C_1  and  C_2
DOCKED: REMARK    2  A    between atoms: C_6  and  C_7
DOCKED: REMARK    3  A    between atoms: C_10  and  C_11
DOCKED: REMARK    4  A    between atoms: C_11  and  N_12
DOCKED: REMARK    5  A    between atoms: C_13  and  C_15
DOCKED: REMARK    6  A    between atoms: C_17  and  O_18
DOCKED: REMARK    7  A    between atoms: C_21  and  C_23
DOCKED: REMARK    8  A    between atoms: C_23  and  N_24
DOCKED: REMARK    9  A    between atoms: C_23  and  C_29
DOCKED: REMARK   10  A    between atoms: C_25  and  C_27
DOCKED: REMARK   11  A    between atoms: C_27  and  O_28
DOCKED: REMARK   12  A    between atoms: C_29  and  C_30
DOCKED: REMARK   13  A    between atoms: C_29  and  C_31
DOCKED: REMARK   14  A    between atoms: C_29  and  C_32
DOCKED: REMARK                            x       y       z     vdW  Elec       q    Type
DOCKED: REMARK                         _______ _______ _______ _____ _____    ______ ____
DOCKED: USER                              x       y       z     vdW  Elec       q    Type
DOCKED: USER                           _______ _______ _______ _____ _____    ______ ____
DOCKED: ROOT
DOCKED: ATOM      1  C   UNL     1      12.366  24.499  17.912 -0.14 -0.01    +0.164 C  
DOCKED: ATOM      2  C   UNL     1      13.714  23.857  17.512 -0.14 +0.00    +0.065 C  
DOCKED: ATOM      3  C   UNL     1      14.401  23.554  18.825 -0.11 -0.01    +0.134 C  
DOCKED: ATOM      4  C   UNL     1      13.241  23.167  19.736 -0.05 -0.02    +0.140 C  
DOCKED: ATOM      5  N   UNL     1      12.092  23.938  19.255 -0.01 +0.05    -0.286 N  
DOCKED: ATOM      6  C   UNL     1      11.180  24.374  20.213 -0.01 -0.06    +0.237 C  
DOCKED: ATOM      7  O   UNL     1      11.380  24.096  21.400 -0.00 +0.06    -0.274 OA 
DOCKED: ENDROOT
DOCKED: BRANCH   1   9
DOCKED: ATOM      8  N   UNL     1      10.829  23.036  16.572 -0.13 +0.03    -0.310 N  
DOCKED: ATOM      9  C   UNL     1      11.277  24.312  16.821 -0.19 -0.00    +0.234 C  
DOCKED: ATOM     10  O   UNL     1      10.811  25.259  16.189 -0.38 -0.03    -0.274 OA 
DOCKED: ATOM     11  H   UNL     1      11.462  22.256  16.691 +0.07 -0.01    +0.149 HD 
DOCKED: BRANCH   8  12
DOCKED: ATOM     12  C   UNL     1       9.782  22.851  15.603 -0.33 -0.02    +0.139 C  
DOCKED: BRANCH  12  16
DOCKED: ATOM     13  C   UNL     1       7.540  19.226  16.379 -0.25 +0.00    -0.010 A  
DOCKED: ATOM     14  C   UNL     1       8.900  19.148  16.032 -0.31 -0.00    +0.009 A  
DOCKED: ATOM     15  C   UNL     1       9.642  20.303  15.749 -0.33 -0.00    +0.006 A  
DOCKED: ATOM     16  C   UNL     1       9.031  21.562  15.768 -0.29 +0.01    -0.030 A  
DOCKED: ATOM     17  C   UNL     1       7.675  21.641  16.094 -0.30 -0.00    +0.006 A  
DOCKED: ATOM     18  C   UNL     1       6.949  20.495  16.407 -0.21 -0.00    +0.009 A  
DOCKED: BRANCH  13  24
DOCKED: ATOM     19  C   UNL     1       8.245  16.740  18.409 -0.18 -0.00    +0.067 C  
DOCKED: ATOM     20  C   UNL     1       7.027  16.960  17.580 -0.17 -0.00    +0.053 A  
DOCKED: ATOM     21  N   UNL     1       6.047  15.983  17.647 -0.14 +0.00    -0.252 NA 
DOCKED: ATOM     22  C   UNL     1       5.041  16.305  16.871 -0.23 -0.00    +0.156 A  
DOCKED: ATOM     23  S   UNL     1       5.192  17.775  16.016 -0.32 +0.01    -0.075 S  
DOCKED: ATOM     24  C   UNL     1       6.745  18.037  16.738 -0.24 -0.00    +0.042 A  
DOCKED: ENDBRANCH  13  24
DOCKED: ENDBRANCH  12  16
DOCKED: ENDBRANCH   8  12
DOCKED: ENDBRANCH   1   9
DOCKED: BRANCH   3  25
DOCKED: ATOM     25  O   UNL     1      15.089  24.719  19.262 -0.01 +0.03    -0.390 OA 
DOCKED: ATOM     26  H   UNL     1      15.280  25.276  18.490 +0.05 -0.01    +0.210 HD 
DOCKED: ENDBRANCH   3  25
DOCKED: BRANCH   6  27
DOCKED: ATOM     27  C   UNL     1       9.910  25.175  19.792 -0.05 -0.07    +0.164 C  
DOCKED: BRANCH  27  28
DOCKED: ATOM     28  N   UNL     1      10.221  26.301  18.903 -0.08 +0.20    -0.302 N  
DOCKED: ATOM     29  C   UNL     1      10.704  27.529  19.283 -0.07 -0.15    +0.239 C  
DOCKED: ATOM     30  O   UNL     1      10.695  27.961  20.428 -0.03 +0.13    -0.273 OA 
DOCKED: ATOM     31  H   UNL     1      10.199  26.110  17.904 +0.01 -0.11    +0.150 HD 
DOCKED: BRANCH  29  32
DOCKED: ATOM     32  C   UNL     1      11.261  28.347  18.113 -0.08 -0.13    +0.251 C  
DOCKED: BRANCH  32  33
DOCKED: ATOM     33  O   UNL     1      11.303  27.588  16.909 -0.50 -0.02    -0.386 OA 
DOCKED: ATOM     34  H   UNL     1      10.382  27.327  16.724 -0.29 -0.24    +0.210 HD 
DOCKED: ENDBRANCH  32  33
DOCKED: ENDBRANCH  29  32
DOCKED: ENDBRANCH  27  28
DOCKED: BRANCH  27  35
DOCKED: ATOM     35  C   UNL     1       8.702  24.314  19.279 -0.08 +0.01    -0.011 C  
DOCKED: ATOM     36  C   UNL     1       7.509  24.490  20.244 -0.04 -0.01    +0.013 C  
DOCKED: ATOM     37  C   UNL     1       8.238  24.828  17.892 -0.14 -0.01    +0.013 C  
DOCKED: ATOM     38  C   UNL     1       9.019  22.816  19.127 -0.06 -0.00    +0.013 C  
DOCKED: ENDBRANCH  27  35
DOCKED: ENDBRANCH   6  27
DOCKED: TORSDOF 10
DOCKED: TER
DOCKED: ENDMDL
________________________________________________________________________________


    FINAL DOCKED STATE:
    ________________________


Run:   5 / 50
Time taken for this run:   0.000s

DOCKED: MODEL        5
DOCKED: USER    Run = 5
DOCKED: USER
DOCKED: USER    Estimated Free Energy of Binding    =  -2.55 kcal/mol  [=(1)+(2)+(3)-(4)]
DOCKED: USER
DOCKED: USER    (1) Final Intermolecular Energy     =  -5.54 kcal/mol
DOCKED: USER        vdW + Hbond + desolv Energy     =  -5.58 kcal/mol
DOCKED: USER        Electrostatic Energy            =  +0.04 kcal/mol
DOCKED: USER        Moving Ligand-Fixed Receptor    =  -5.54 kcal/mol
DOCKED: USER        Moving Ligand-Moving Receptor   =  +0.00 kcal/mol
DOCKED: USER    (2) Final Total Internal Energy     =  -5.19 kcal/mol
DOCKED: USER    (3) Torsional Free Energy           =  +2.98 kcal/mol
DOCKED: USER    (4) Unbound System's Energy         =  -5.19 kcal/mol
DOCKED: USER
DOCKED: USER
DOCKED: REMARK  Name = 
DOCKED: REMARK  14 active torsions:
DOCKED: REMARK  status: ('A' for Active; 'I' for Inactive)
DOCKED: REMARK    1  A    between atoms: C_1  and  C_2
DOCKED: REMARK    2  A    between atoms: C_6  and  C_7
DOCKED: REMARK    3  A    between atoms: C_10  and  C_11
DOCKED: REMARK    4  A    between atoms: C_11  and  N_12
DOCKED: REMARK    5  A    between atoms: C_13  and  C_15
DOCKED: REMARK    6  A    between atoms: C_17  and  O_18
DOCKED: REMARK    7  A    between atoms: C_21  and  C_23
DOCKED: REMARK    8  A    between atoms: C_23  and  N_24
DOCKED: REMARK    9  A    between atoms: C_23  and  C_29
DOCKED: REMARK   10  A    between atoms: C_25  and  C_27
DOCKED: REMARK   11  A    between atoms: C_27  and  O_28
DOCKED: REMARK   12  A    between atoms: C_29  and  C_30
DOCKED: REMARK   13  A    between atoms: C_29  and  C_31
DOCKED: REMARK   14  A    between atoms: C_29  and  C_32
DOCKED: REMARK                            x       y       z     vdW  Elec       q    Type
DOCKED: REMARK                         _______ _______ _______ _____ _____    ______ ____
DOCKED: USER                              x       y       z     vdW  Elec       q    Type
DOCKED: USER                           _______ _______ _______ _____ _____    ______ ____
DOCKED: ROOT
DOCKED: ATOM      1  C   UNL     1       9.459  20.801  18.013 -0.10 -0.03    +0.164 C  
DOCKED: ATOM      2  C   UNL     1       9.441  19.278  17.748 -0.20 -0.01    +0.065 C  
DOCKED: ATOM      3  C   UNL     1       8.851  19.136  16.363 -0.29 -0.02    +0.134 C  
DOCKED: ATOM      4  C   UNL     1       9.393  20.359  15.632 -0.29 -0.02    +0.140 C  
DOCKED: ATOM      5  N   UNL     1       9.537  21.395  16.658 -0.11 +0.05    -0.286 N  
DOCKED: ATOM      6  C   UNL     1       9.293  22.709  16.266 -0.23 -0.05    +0.237 C  
DOCKED: ATOM      7  O   UNL     1       8.971  22.934  15.094 -0.32 +0.07    -0.274 OA 
DOCKED: ENDROOT
DOCKED: BRANCH   1   9
DOCKED: ATOM      8  N   UNL     1      11.855  20.868  18.759 -0.06 +0.05    -0.310 N  
DOCKED: ATOM      9  C   UNL     1      10.551  21.208  19.038 -0.05 -0.04    +0.234 C  
DOCKED: ATOM     10  O   UNL     1      10.287  21.820  20.073 -0.01 +0.05    -0.274 OA 
DOCKED: ATOM     11  H   UNL     1      12.045  20.025  18.235 +0.04 -0.02    +0.149 HD 
DOCKED: BRANCH   8  12
DOCKED: ATOM     12  C   UNL     1      12.885  21.286  19.672 -0.10 -0.02    +0.139 C  
DOCKED: BRANCH  12  16
DOCKED: ATOM     13  C   UNL     1      15.846  23.812  17.767 -0.25 +0.00    -0.010 A  
DOCKED: ATOM     14  C   UNL     1      15.472  22.597  17.168 -0.22 -0.00    +0.009 A  
DOCKED: ATOM     15  C   UNL     1      14.537  21.747  17.776 -0.32 -0.00    +0.006 A  
DOCKED: ATOM     16  C   UNL     1      13.983  22.075  19.018 -0.16 +0.00    -0.030 A  
DOCKED: ATOM     17  C   UNL     1      14.366  23.273  19.626 -0.07 -0.00    +0.006 A  
DOCKED: ATOM     18  C   UNL     1      15.270  24.130  19.003 -0.10 -0.00    +0.009 A  
DOCKED: BRANCH  13  24
DOCKED: ATOM     19  C   UNL     1      15.383  26.907  16.767 -0.09 +0.02    +0.067 C  
DOCKED: ATOM     20  C   UNL     1      16.608  26.064  16.678 -0.25 +0.00    +0.053 A  
DOCKED: ATOM     21  N   UNL     1      17.715  26.641  16.079 -0.46 -0.03    -0.252 NA 
DOCKED: ATOM     22  C   UNL     1      18.712  25.790  16.068 -0.19 -0.01    +0.156 A  
DOCKED: ATOM     23  S   UNL     1      18.402  24.262  16.761 -0.34 +0.02    -0.075 S  
DOCKED: ATOM     24  C   UNL     1      16.783  24.754  17.128 -0.26 -0.00    +0.042 A  
DOCKED: ENDBRANCH  13  24
DOCKED: ENDBRANCH  12  16
DOCKED: ENDBRANCH   8  12
DOCKED: ENDBRANCH   1   9
DOCKED: BRANCH   3  25
DOCKED: ATOM     25  O   UNL     1       7.433  19.130  16.468 -0.15 +0.04    -0.390 OA 
DOCKED: ATOM     26  H   UNL     1       7.107  20.036  16.339 +0.08 -0.03    +0.210 HD 
DOCKED: ENDBRANCH   3  25
DOCKED: BRANCH   6  27
DOCKED: ATOM     27  C   UNL     1       9.451  23.881  17.282 -0.18 -0.06    +0.164 C  
DOCKED: BRANCH  27  28
DOCKED: ATOM     28  N   UNL     1       8.755  23.630  18.549 -0.04 +0.12    -0.302 N  
DOCKED: ATOM     29  C   UNL     1       7.418  23.357  18.703 -0.05 -0.10    +0.239 C  
DOCKED: ATOM     30  O   UNL     1       6.563  23.545  17.848 -0.08 +0.14    -0.273 OA 
DOCKED: ATOM     31  H   UNL     1       9.340  23.520  19.374 +0.02 -0.05    +0.150 HD 
DOCKED: BRANCH  29  32
DOCKED: ATOM     32  C   UNL     1       7.073  22.792  20.085 -0.01 -0.08    +0.251 C  
DOCKED: BRANCH  32  33
DOCKED: ATOM     33  O   UNL     1       8.136  22.976  21.013 +0.00 +0.10    -0.386 OA 
DOCKED: ATOM     34  H   UNL     1       8.917  22.548  20.614 +0.01 -0.05    +0.210 HD 
DOCKED: ENDBRANCH  32  33
DOCKED: ENDBRANCH  29  32
DOCKED: ENDBRANCH  27  28
DOCKED: BRANCH  27  35
DOCKED: ATOM     35  C   UNL     1      10.916  24.408  17.490 -0.23 +0.00    -0.011 C  
DOCKED: ATOM     36  C   UNL     1      11.275  24.325  18.990 -0.08 -0.00    +0.013 C  
DOCKED: ATOM     37  C   UNL     1      11.917  23.494  16.737 -0.27 +0.00    +0.013 C  
DOCKED: ATOM     38  C   UNL     1      11.143  25.844  16.989 -0.18 +0.00    +0.013 C  
DOCKED: ENDBRANCH  27  35
DOCKED: ENDBRANCH   6  27
DOCKED: TORSDOF 10
DOCKED: TER
DOCKED: ENDMDL
________________________________________________________________________________


    FINAL DOCKED STATE:
    ________________________


Run:   6 / 50
Time taken for this run:   0.000s

DOCKED: MODEL        6
DOCKED: USER    Run = 6
DOCKED: USER
DOCKED: USER    Estimated Free Energy of Binding    =  -2.68 kcal/mol  [=(1)+(2)+(3)-(4)]
DOCKED: USER
DOCKED: USER    (1) Final Intermolecular Energy     =  -5.66 kcal/mol
DOCKED: USER        vdW + Hbond + desolv Energy     =  -5.47 kcal/mol
DOCKED: USER        Electrostatic Energy            =  -0.20 kcal/mol
DOCKED: USER        Moving Ligand-Fixed Receptor    =  -5.66 kcal/mol
DOCKED: USER        Moving Ligand-Moving Receptor   =  +0.00 kcal/mol
DOCKED: USER    (2) Final Total Internal Energy     =  -5.09 kcal/mol
DOCKED: USER    (3) Torsional Free Energy           =  +2.98 kcal/mol
DOCKED: USER    (4) Unbound System's Energy         =  -5.09 kcal/mol
DOCKED: USER
DOCKED: USER
DOCKED: REMARK  Name = 
DOCKED: REMARK  14 active torsions:
DOCKED: REMARK  status: ('A' for Active; 'I' for Inactive)
DOCKED: REMARK    1  A    between atoms: C_1  and  C_2
DOCKED: REMARK    2  A    between atoms: C_6  and  C_7
DOCKED: REMARK    3  A    between atoms: C_10  and  C_11
DOCKED: REMARK    4  A    between atoms: C_11  and  N_12
DOCKED: REMARK    5  A    between atoms: C_13  and  C_15
DOCKED: REMARK    6  A    between atoms: C_17  and  O_18
DOCKED: REMARK    7  A    between atoms: C_21  and  C_23
DOCKED: REMARK    8  A    between atoms: C_23  and  N_24
DOCKED: REMARK    9  A    between atoms: C_23  and  C_29
DOCKED: REMARK   10  A    between atoms: C_25  and  C_27
DOCKED: REMARK   11  A    between atoms: C_27  and  O_28
DOCKED: REMARK   12  A    between atoms: C_29  and  C_30
DOCKED: REMARK   13  A    between atoms: C_29  and  C_31
DOCKED: REMARK   14  A    between atoms: C_29  and  C_32
DOCKED: REMARK                            x       y       z     vdW  Elec       q    Type
DOCKED: REMARK                         _______ _______ _______ _____ _____    ______ ____
DOCKED: USER                              x       y       z     vdW  Elec       q    Type
DOCKED: USER                           _______ _______ _______ _____ _____    ______ ____
DOCKED: ROOT
DOCKED: ATOM      1  C   UNL     1      10.508  20.743  17.652 -0.15 -0.03    +0.164 C  
DOCKED: ATOM      2  C   UNL     1       9.689  19.450  17.437 -0.23 -0.01    +0.065 C  
DOCKED: ATOM      3  C   UNL     1       9.776  19.182  15.951 -0.35 -0.02    +0.134 C  
DOCKED: ATOM      4  C   UNL     1      11.186  19.647  15.602 -0.38 -0.02    +0.140 C  
DOCKED: ATOM      5  N   UNL     1      11.481  20.736  16.536 -0.17 +0.04    -0.286 N  
DOCKED: ATOM      6  C   UNL     1      12.268  21.781  16.058 -0.29 -0.01    +0.237 C  
DOCKED: ATOM      7  O   UNL     1      12.671  21.741  14.890 -0.30 -0.03    -0.274 OA 
DOCKED: ENDROOT
DOCKED: BRANCH   1   9
DOCKED: ATOM      8  N   UNL     1      11.723  19.757  19.613 -0.07 +0.04    -0.310 N  
DOCKED: ATOM      9  C   UNL     1      11.072  20.851  19.094 -0.07 -0.04    +0.234 C  
DOCKED: ATOM     10  O   UNL     1      10.957  21.873  19.771 -0.02 +0.05    -0.274 OA 
DOCKED: ATOM     11  H   UNL     1      11.440  18.830  19.327 +0.02 -0.02    +0.149 HD 
DOCKED: BRANCH   8  12
DOCKED: ATOM     12  C   UNL     1      12.299  19.858  20.928 -0.07 -0.02    +0.139 C  
DOCKED: BRANCH  12  16
DOCKED: ATOM     13  C   UNL     1      16.628  19.703  20.854 -0.16 +0.00    -0.010 A  
DOCKED: ATOM     14  C   UNL     1      15.881  18.758  20.131 -0.27 -0.00    +0.009 A  
DOCKED: ATOM     15  C   UNL     1      14.479  18.768  20.159 -0.18 -0.00    +0.006 A  
DOCKED: ATOM     16  C   UNL     1      13.792  19.701  20.944 -0.10 +0.00    -0.030 A  
DOCKED: ATOM     17  C   UNL     1      14.532  20.631  21.679 -0.05 -0.00    +0.006 A  
DOCKED: ATOM     18  C   UNL     1      15.923  20.638  21.621 -0.07 -0.00    +0.009 A  
DOCKED: BRANCH  13  24
DOCKED: ATOM     19  C   UNL     1      18.843  17.284  21.049 -0.13 -0.02    +0.067 C  
DOCKED: ATOM     20  C   UNL     1      19.063  18.750  20.900 -0.14 -0.01    +0.053 A  
DOCKED: ATOM     21  N   UNL     1      20.380  19.177  20.850 -0.09 +0.05    -0.252 NA 
DOCKED: ATOM     22  C   UNL     1      20.423  20.481  20.721 -0.09 -0.02    +0.156 A  
DOCKED: ATOM     23  S   UNL     1      18.915  21.278  20.651 -0.11 +0.00    -0.075 S  
DOCKED: ATOM     24  C   UNL     1      18.101  19.757  20.801 -0.15 -0.00    +0.042 A  
DOCKED: ENDBRANCH  13  24
DOCKED: ENDBRANCH  12  16
DOCKED: ENDBRANCH   8  12
DOCKED: ENDBRANCH   1   9
DOCKED: BRANCH   3  25
DOCKED: ATOM     25  O   UNL     1       8.762  19.929  15.290 -0.19 +0.06    -0.390 OA 
DOCKED: ATOM     26  H   UNL     1       8.371  20.552  15.925 +0.09 -0.04    +0.210 HD 
DOCKED: ENDBRANCH   3  25
DOCKED: BRANCH   6  27
DOCKED: ATOM     27  C   UNL     1      12.660  22.969  16.988 -0.20 +0.00    +0.164 C  
DOCKED: BRANCH  27  28
DOCKED: ATOM     28  N   UNL     1      11.501  23.565  17.662 -0.07 +0.03    -0.302 N  
DOCKED: ATOM     29  C   UNL     1      10.793  24.666  17.245 -0.18 -0.04    +0.239 C  
DOCKED: ATOM     30  O   UNL     1      11.181  25.469  16.405 -0.38 -0.07    -0.273 OA 
DOCKED: ATOM     31  H   UNL     1      11.105  23.038  18.437 +0.04 -0.03    +0.150 HD 
DOCKED: BRANCH  29  32
DOCKED: ATOM     32  C   UNL     1       9.442  24.820  17.950 -0.12 -0.14    +0.251 C  
DOCKED: BRANCH  32  33
DOCKED: ATOM     33  O   UNL     1       9.019  23.602  18.555 -0.03 +0.15    -0.386 OA 
DOCKED: ATOM     34  H   UNL     1       9.615  23.458  19.313 +0.03 -0.06    +0.210 HD 
DOCKED: ENDBRANCH  32  33
DOCKED: ENDBRANCH  29  32
DOCKED: ENDBRANCH  27  28
DOCKED: BRANCH  27  35
DOCKED: ATOM     35  C   UNL     1      13.856  22.699  17.968 -0.26 +0.00    -0.011 C  
DOCKED: ATOM     36  C   UNL     1      14.231  21.201  17.909 -0.23 -0.00    +0.013 C  
DOCKED: ATOM     37  C   UNL     1      15.105  23.493  17.508 -0.28 -0.00    +0.013 C  
DOCKED: ATOM     38  C   UNL     1      13.574  23.097  19.427 -0.09 -0.00    +0.013 C  
DOCKED: ENDBRANCH  27  35
DOCKED: ENDBRANCH   6  27
DOCKED: TORSDOF 10
DOCKED: TER
DOCKED: ENDMDL
________________________________________________________________________________


    FINAL DOCKED STATE:
    ________________________


Run:   7 / 50
Time taken for this run:   0.000s

DOCKED: MODEL        7
DOCKED: USER    Run = 7
DOCKED: USER
DOCKED: USER    Estimated Free Energy of Binding    =  -4.20 kcal/mol  [=(1)+(2)+(3)-(4)]
DOCKED: USER
DOCKED: USER    (1) Final Intermolecular Energy     =  -7.19 kcal/mol
DOCKED: USER        vdW + Hbond + desolv Energy     =  -7.04 kcal/mol
DOCKED: USER        Electrostatic Energy            =  -0.14 kcal/mol
DOCKED: USER        Moving Ligand-Fixed Receptor    =  -7.19 kcal/mol
DOCKED: USER        Moving Ligand-Moving Receptor   =  +0.00 kcal/mol
DOCKED: USER    (2) Final Total Internal Energy     =  -3.66 kcal/mol
DOCKED: USER    (3) Torsional Free Energy           =  +2.98 kcal/mol
DOCKED: USER    (4) Unbound System's Energy         =  -3.66 kcal/mol
DOCKED: USER
DOCKED: USER
DOCKED: REMARK  Name = 
DOCKED: REMARK  14 active torsions:
DOCKED: REMARK  status: ('A' for Active; 'I' for Inactive)
DOCKED: REMARK    1  A    between atoms: C_1  and  C_2
DOCKED: REMARK    2  A    between atoms: C_6  and  C_7
DOCKED: REMARK    3  A    between atoms: C_10  and  C_11
DOCKED: REMARK    4  A    between atoms: C_11  and  N_12
DOCKED: REMARK    5  A    between atoms: C_13  and  C_15
DOCKED: REMARK    6  A    between atoms: C_17  and  O_18
DOCKED: REMARK    7  A    between atoms: C_21  and  C_23
DOCKED: REMARK    8  A    between atoms: C_23  and  N_24
DOCKED: REMARK    9  A    between atoms: C_23  and  C_29
DOCKED: REMARK   10  A    between atoms: C_25  and  C_27
DOCKED: REMARK   11  A    between atoms: C_27  and  O_28
DOCKED: REMARK   12  A    between atoms: C_29  and  C_30
DOCKED: REMARK   13  A    between atoms: C_29  and  C_31
DOCKED: REMARK   14  A    between atoms: C_29  and  C_32
DOCKED: REMARK                            x       y       z     vdW  Elec       q    Type
DOCKED: REMARK                         _______ _______ _______ _____ _____    ______ ____
DOCKED: USER                              x       y       z     vdW  Elec       q    Type
DOCKED: USER                           _______ _______ _______ _____ _____    ______ ____
DOCKED: ROOT
DOCKED: ATOM      1  C   UNL     1      13.142  22.298  17.273 -0.25 -0.01    +0.164 C  
DOCKED: ATOM      2  C   UNL     1      13.703  21.355  16.185 -0.25 -0.01    +0.065 C  
DOCKED: ATOM      3  C   UNL     1      12.541  21.117  15.246 -0.41 -0.01    +0.134 C  
DOCKED: ATOM      4  C   UNL     1      11.816  22.459  15.252 -0.18 +0.02    +0.140 C  
DOCKED: ATOM      5  N   UNL     1      12.048  23.022  16.585 -0.14 -0.01    -0.286 N  
DOCKED: ATOM      6  C   UNL     1      11.016  23.774  17.140 -0.16 -0.03    +0.237 C  
DOCKED: ATOM      7  O   UNL     1       9.973  23.927  16.495 -0.21 +0.06    -0.274 OA 
DOCKED: ENDROOT
DOCKED: BRANCH   1   9
DOCKED: ATOM      8  N   UNL     1      15.561  22.867  17.624 -0.19 +0.05    -0.310 N  
DOCKED: ATOM      9  C   UNL     1      14.254  23.150  17.944 -0.17 -0.01    +0.234 C  
DOCKED: ATOM     10  O   UNL     1      13.999  24.057  18.736 -0.06 +0.02    -0.274 OA 
DOCKED: ATOM     11  H   UNL     1      15.822  21.918  17.396 -0.31 -0.07    +0.149 HD 
DOCKED: BRANCH   8  12
DOCKED: ATOM     12  C   UNL     1      16.601  23.682  18.196 -0.20 -0.02    +0.139 C  
DOCKED: BRANCH  12  16
DOCKED: ATOM     13  C   UNL     1      16.278  27.770  16.796 -0.19 -0.00    -0.010 A  
DOCKED: ATOM     14  C   UNL     1      16.793  26.777  15.946 -0.32 +0.00    +0.009 A  
DOCKED: ATOM     15  C   UNL     1      16.934  25.452  16.381 -0.29 +0.00    +0.006 A  
DOCKED: ATOM     16  C   UNL     1      16.599  25.097  17.693 -0.18 +0.00    -0.030 A  
DOCKED: ATOM     17  C   UNL     1      16.105  26.085  18.548 -0.08 -0.00    +0.006 A  
DOCKED: ATOM     18  C   UNL     1      15.935  27.393  18.100 -0.10 +0.00    +0.009 A  
DOCKED: BRANCH  13  24
DOCKED: ATOM     19  C   UNL     1      17.555  29.398  14.244 -0.24 -0.03    +0.067 C  
DOCKED: ATOM     20  C   UNL     1      16.606  29.880  15.287 -0.18 -0.00    +0.053 A  
DOCKED: ATOM     21  N   UNL     1      16.204  31.202  15.195 -0.25 +0.07    -0.252 NA 
DOCKED: ATOM     22  C   UNL     1      15.377  31.487  16.171 -0.12 -0.00    +0.156 A  
DOCKED: ATOM     23  S   UNL     1      15.027  30.214  17.253 -0.11 -0.01    -0.075 S  
DOCKED: ATOM     24  C   UNL     1      16.064  29.160  16.352 -0.11 +0.01    +0.042 A  
DOCKED: ENDBRANCH  13  24
DOCKED: ENDBRANCH  12  16
DOCKED: ENDBRANCH   8  12
DOCKED: ENDBRANCH   1   9
DOCKED: BRANCH   3  25
DOCKED: ATOM     25  O   UNL     1      11.749  20.051  15.757 -0.19 +0.06    -0.390 OA 
DOCKED: ATOM     26  H   UNL     1      11.556  19.433  15.033 +0.09 -0.04    +0.210 HD 
DOCKED: ENDBRANCH   3  25
DOCKED: BRANCH   6  27
DOCKED: ATOM     27  C   UNL     1      11.184  24.438  18.541 -0.08 -0.04    +0.164 C  
DOCKED: BRANCH  27  28
DOCKED: ATOM     28  N   UNL     1      11.878  25.729  18.475 -0.07 +0.05    -0.302 N  
DOCKED: ATOM     29  C   UNL     1      11.547  26.793  17.671 -0.16 -0.03    +0.239 C  
DOCKED: ATOM     30  O   UNL     1      10.798  26.732  16.705 -0.61 +0.05    -0.273 OA 
DOCKED: ATOM     31  H   UNL     1      12.589  25.899  19.183 +0.02 -0.02    +0.150 HD 
DOCKED: BRANCH  29  32
DOCKED: ATOM     32  C   UNL     1      12.226  28.101  18.090 -0.13 -0.01    +0.251 C  
DOCKED: BRANCH  32  33
DOCKED: ATOM     33  O   UNL     1      11.644  29.229  17.446 -0.53 +0.01    -0.386 OA 
DOCKED: ATOM     34  H   UNL     1      10.800  28.917  17.070 -0.41 -0.19    +0.210 HD 
DOCKED: ENDBRANCH  32  33
DOCKED: ENDBRANCH  29  32
DOCKED: ENDBRANCH  27  28
DOCKED: BRANCH  27  35
DOCKED: ATOM     35  C   UNL     1       9.889  24.491  19.427 -0.07 +0.00    -0.011 C  
DOCKED: ATOM     36  C   UNL     1       9.379  23.053  19.664 -0.04 -0.00    +0.013 C  
DOCKED: ATOM     37  C   UNL     1      10.227  25.083  20.820 -0.02 -0.00    +0.013 C  
DOCKED: ATOM     38  C   UNL     1       8.756  25.344  18.832 -0.13 -0.01    +0.013 C  
DOCKED: ENDBRANCH  27  35
DOCKED: ENDBRANCH   6  27
DOCKED: TORSDOF 10
DOCKED: TER
DOCKED: ENDMDL
________________________________________________________________________________


    FINAL DOCKED STATE:
    ________________________


Run:   8 / 50
Time taken for this run:   0.000s

DOCKED: MODEL        8
DOCKED: USER    Run = 8
DOCKED: USER
DOCKED: USER    Estimated Free Energy of Binding    =  -3.21 kcal/mol  [=(1)+(2)+(3)-(4)]
DOCKED: USER
DOCKED: USER    (1) Final Intermolecular Energy     =  -6.20 kcal/mol
DOCKED: USER        vdW + Hbond + desolv Energy     =  -6.03 kcal/mol
DOCKED: USER        Electrostatic Energy            =  -0.17 kcal/mol
DOCKED: USER        Moving Ligand-Fixed Receptor    =  -6.20 kcal/mol
DOCKED: USER        Moving Ligand-Moving Receptor   =  +0.00 kcal/mol
DOCKED: USER    (2) Final Total Internal Energy     =  -4.72 kcal/mol
DOCKED: USER    (3) Torsional Free Energy           =  +2.98 kcal/mol
DOCKED: USER    (4) Unbound System's Energy         =  -4.72 kcal/mol
DOCKED: USER
DOCKED: USER
DOCKED: REMARK  Name = 
DOCKED: REMARK  14 active torsions:
DOCKED: REMARK  status: ('A' for Active; 'I' for Inactive)
DOCKED: REMARK    1  A    between atoms: C_1  and  C_2
DOCKED: REMARK    2  A    between atoms: C_6  and  C_7
DOCKED: REMARK    3  A    between atoms: C_10  and  C_11
DOCKED: REMARK    4  A    between atoms: C_11  and  N_12
DOCKED: REMARK    5  A    between atoms: C_13  and  C_15
DOCKED: REMARK    6  A    between atoms: C_17  and  O_18
DOCKED: REMARK    7  A    between atoms: C_21  and  C_23
DOCKED: REMARK    8  A    between atoms: C_23  and  N_24
DOCKED: REMARK    9  A    between atoms: C_23  and  C_29
DOCKED: REMARK   10  A    between atoms: C_25  and  C_27
DOCKED: REMARK   11  A    between atoms: C_27  and  O_28
DOCKED: REMARK   12  A    between atoms: C_29  and  C_30
DOCKED: REMARK   13  A    between atoms: C_29  and  C_31
DOCKED: REMARK   14  A    between atoms: C_29  and  C_32
DOCKED: REMARK                            x       y       z     vdW  Elec       q    Type
DOCKED: REMARK                         _______ _______ _______ _____ _____    ______ ____
DOCKED: USER                              x       y       z     vdW  Elec       q    Type
DOCKED: USER                           _______ _______ _______ _____ _____    ______ ____
DOCKED: ROOT
DOCKED: ATOM      1  C   UNL     1      10.438  20.934  17.783 -0.13 -0.03    +0.164 C  
DOCKED: ATOM      2  C   UNL     1       9.577  19.667  17.582 -0.20 -0.01    +0.065 C  
DOCKED: ATOM      3  C   UNL     1       9.509  19.482  16.082 -0.36 -0.02    +0.134 C  
DOCKED: ATOM      4  C   UNL     1      10.885  19.944  15.618 -0.38 -0.02    +0.140 C  
DOCKED: ATOM      5  N   UNL     1      11.294  20.976  16.575 -0.16 +0.03    -0.286 N  
DOCKED: ATOM      6  C   UNL     1      12.050  22.034  16.077 -0.27 -0.00    +0.237 C  
DOCKED: ATOM      7  O   UNL     1      12.332  22.053  14.874 -0.26 -0.05    -0.274 OA 
DOCKED: ENDROOT
DOCKED: BRANCH   1   9
DOCKED: ATOM      8  N   UNL     1      11.863  19.839  19.534 -0.07 +0.04    -0.310 N  
DOCKED: ATOM      9  C   UNL     1      11.146  20.953  19.164 -0.07 -0.04    +0.234 C  
DOCKED: ATOM     10  O   UNL     1      11.087  21.922  19.921 -0.02 +0.05    -0.274 OA 
DOCKED: ATOM     11  H   UNL     1      11.566  18.929  19.213 +0.03 -0.02    +0.149 HD 
DOCKED: BRANCH   8  12
DOCKED: ATOM     12  C   UNL     1      12.570  19.861  20.787 -0.08 -0.02    +0.139 C  
DOCKED: BRANCH  12  16
DOCKED: ATOM     13  C   UNL     1      16.222  17.545  20.515 -0.25 +0.00    -0.010 A  
DOCKED: ATOM     14  C   UNL     1      14.985  16.891  20.647 -0.18 -0.00    +0.009 A  
DOCKED: ATOM     15  C   UNL     1      13.791  17.615  20.764 -0.13 -0.00    +0.006 A  
DOCKED: ATOM     16  C   UNL     1      13.810  19.014  20.792 -0.13 +0.00    -0.030 A  
DOCKED: ATOM     17  C   UNL     1      15.040  19.668  20.681 -0.16 -0.00    +0.006 A  
DOCKED: ATOM     18  C   UNL     1      16.220  18.945  20.531 -0.22 -0.00    +0.009 A  
DOCKED: BRANCH  13  24
DOCKED: ATOM     19  C   UNL     1      16.815  14.673  19.033 -0.30 -0.01    +0.067 C  
DOCKED: ATOM     20  C   UNL     1      17.766  15.588  19.726 -0.25 -0.01    +0.053 A  
DOCKED: ATOM     21  N   UNL     1      19.090  15.182  19.777 -0.14 +0.08    -0.252 NA 
DOCKED: ATOM     22  C   UNL     1      19.807  16.076  20.413 -0.06 -0.05    +0.156 A  
DOCKED: ATOM     23  S   UNL     1      18.963  17.444  20.988 -0.16 +0.02    -0.075 S  
DOCKED: ATOM     24  C   UNL     1      17.490  16.813  20.333 -0.22 -0.01    +0.042 A  
DOCKED: ENDBRANCH  13  24
DOCKED: ENDBRANCH  12  16
DOCKED: ENDBRANCH   8  12
DOCKED: ENDBRANCH   1   9
DOCKED: BRANCH   3  25
DOCKED: ATOM     25  O   UNL     1       8.448  20.279  15.570 -0.20 +0.06    -0.390 OA 
DOCKED: ATOM     26  H   UNL     1       8.819  20.934  14.957 +0.09 -0.03    +0.210 HD 
DOCKED: ENDBRANCH   3  25
DOCKED: BRANCH   6  27
DOCKED: ATOM     27  C   UNL     1      12.556  23.162  17.026 -0.18 +0.00    +0.164 C  
DOCKED: BRANCH  27  28
DOCKED: ATOM     28  N   UNL     1      11.479  23.753  17.828 -0.06 +0.04    -0.302 N  
DOCKED: ATOM     29  C   UNL     1      10.802  24.916  17.553 -0.17 -0.06    +0.239 C  
DOCKED: ATOM     30  O   UNL     1      11.171  25.767  16.755 -0.47 -0.03    -0.273 OA 
DOCKED: ATOM     31  H   UNL     1      11.112  23.182  18.586 +0.04 -0.03    +0.150 HD 
DOCKED: BRANCH  29  32
DOCKED: ATOM     32  C   UNL     1       9.512  25.071  18.366 -0.11 -0.15    +0.251 C  
DOCKED: BRANCH  32  33
DOCKED: ATOM     33  O   UNL     1       9.326  23.992  19.275 -0.01 +0.14    -0.386 OA 
DOCKED: ATOM     34  H   UNL     1      10.188  23.858  19.712 +0.03 -0.06    +0.210 HD 
DOCKED: ENDBRANCH  32  33
DOCKED: ENDBRANCH  29  32
DOCKED: ENDBRANCH  27  28
DOCKED: BRANCH  27  35
DOCKED: ATOM     35  C   UNL     1      13.826  22.812  17.882 -0.26 +0.00    -0.011 C  
DOCKED: ATOM     36  C   UNL     1      15.004  23.699  17.425 -0.18 +0.00    +0.013 C  
DOCKED: ATOM     37  C   UNL     1      13.565  23.143  19.373 -0.09 -0.00    +0.013 C  
DOCKED: ATOM     38  C   UNL     1      14.242  21.333  17.809 -0.29 -0.00    +0.013 C  
DOCKED: ENDBRANCH  27  35
DOCKED: ENDBRANCH   6  27
DOCKED: TORSDOF 10
DOCKED: TER
DOCKED: ENDMDL
________________________________________________________________________________


    FINAL DOCKED STATE:
    ________________________


Run:   9 / 50
Time taken for this run:   0.000s

DOCKED: MODEL        9
DOCKED: USER    Run = 9
DOCKED: USER
DOCKED: USER    Estimated Free Energy of Binding    =  -2.63 kcal/mol  [=(1)+(2)+(3)-(4)]
DOCKED: USER
DOCKED: USER    (1) Final Intermolecular Energy     =  -5.61 kcal/mol
DOCKED: USER        vdW + Hbond + desolv Energy     =  -5.43 kcal/mol
DOCKED: USER        Electrostatic Energy            =  -0.19 kcal/mol
DOCKED: USER        Moving Ligand-Fixed Receptor    =  -5.61 kcal/mol
DOCKED: USER        Moving Ligand-Moving Receptor   =  +0.00 kcal/mol
DOCKED: USER    (2) Final Total Internal Energy     =  -5.09 kcal/mol
DOCKED: USER    (3) Torsional Free Energy           =  +2.98 kcal/mol
DOCKED: USER    (4) Unbound System's Energy         =  -5.09 kcal/mol
DOCKED: USER
DOCKED: USER
DOCKED: REMARK  Name = 
DOCKED: REMARK  14 active torsions:
DOCKED: REMARK  status: ('A' for Active; 'I' for Inactive)
DOCKED: REMARK    1  A    between atoms: C_1  and  C_2
DOCKED: REMARK    2  A    between atoms: C_6  and  C_7
DOCKED: REMARK    3  A    between atoms: C_10  and  C_11
DOCKED: REMARK    4  A    between atoms: C_11  and  N_12
DOCKED: REMARK    5  A    between atoms: C_13  and  C_15
DOCKED: REMARK    6  A    between atoms: C_17  and  O_18
DOCKED: REMARK    7  A    between atoms: C_21  and  C_23
DOCKED: REMARK    8  A    between atoms: C_23  and  N_24
DOCKED: REMARK    9  A    between atoms: C_23  and  C_29
DOCKED: REMARK   10  A    between atoms: C_25  and  C_27
DOCKED: REMARK   11  A    between atoms: C_27  and  O_28
DOCKED: REMARK   12  A    between atoms: C_29  and  C_30
DOCKED: REMARK   13  A    between atoms: C_29  and  C_31
DOCKED: REMARK   14  A    between atoms: C_29  and  C_32
DOCKED: REMARK                            x       y       z     vdW  Elec       q    Type
DOCKED: REMARK                         _______ _______ _______ _____ _____    ______ ____
DOCKED: USER                              x       y       z     vdW  Elec       q    Type
DOCKED: USER                           _______ _______ _______ _____ _____    ______ ____
DOCKED: ROOT
DOCKED: ATOM      1  C   UNL     1      10.526  20.723  17.639 -0.15 -0.03    +0.164 C  
DOCKED: ATOM      2  C   UNL     1       9.725  19.418  17.434 -0.24 -0.01    +0.065 C  
DOCKED: ATOM      3  C   UNL     1       9.815  19.141  15.949 -0.35 -0.02    +0.134 C  
DOCKED: ATOM      4  C   UNL     1      11.218  19.622  15.596 -0.36 -0.02    +0.140 C  
DOCKED: ATOM      5  N   UNL     1      11.500  20.722  16.523 -0.17 +0.04    -0.286 N  
DOCKED: ATOM      6  C   UNL     1      12.272  21.773  16.038 -0.30 -0.01    +0.237 C  
DOCKED: ATOM      7  O   UNL     1      12.675  21.730  14.870 -0.29 -0.03    -0.274 OA 
DOCKED: ENDROOT
DOCKED: BRANCH   1   9
DOCKED: ATOM      8  N   UNL     1      11.742  19.761  19.613 -0.07 +0.04    -0.310 N  
DOCKED: ATOM      9  C   UNL     1      11.089  20.848  19.081 -0.08 -0.04    +0.234 C  
DOCKED: ATOM     10  O   UNL     1      10.972  21.878  19.746 -0.02 +0.05    -0.274 OA 
DOCKED: ATOM     11  H   UNL     1      11.460  18.830  19.337 +0.02 -0.02    +0.149 HD 
DOCKED: BRANCH   8  12
DOCKED: ATOM     12  C   UNL     1      12.316  19.878  20.927 -0.07 -0.02    +0.139 C  
DOCKED: BRANCH  12  16
DOCKED: ATOM     13  C   UNL     1      16.644  19.660  20.882 -0.16 +0.00    -0.010 A  
DOCKED: ATOM     14  C   UNL     1      15.888  18.754  20.118 -0.27 -0.00    +0.009 A  
DOCKED: ATOM     15  C   UNL     1      14.487  18.784  20.134 -0.18 -0.00    +0.006 A  
DOCKED: ATOM     16  C   UNL     1      13.807  19.698  20.949 -0.10 +0.00    -0.030 A  
DOCKED: ATOM     17  C   UNL     1      14.554  20.587  21.725 -0.05 -0.00    +0.006 A  
DOCKED: ATOM     18  C   UNL     1      15.946  20.575  21.680 -0.07 -0.00    +0.009 A  
DOCKED: BRANCH  13  24
DOCKED: ATOM     19  C   UNL     1      18.699  22.208  20.601 -0.09 -0.00    +0.067 C  
DOCKED: ATOM     20  C   UNL     1      19.012  20.755  20.707 -0.09 -0.00    +0.053 A  
DOCKED: ATOM     21  N   UNL     1      20.352  20.405  20.669 -0.08 +0.03    -0.252 NA 
DOCKED: ATOM     22  C   UNL     1      20.477  19.105  20.770 -0.10 -0.03    +0.156 A  
DOCKED: ATOM     23  S   UNL     1      19.025  18.219  20.915 -0.17 +0.02    -0.075 S  
DOCKED: ATOM     24  C   UNL     1      18.118  19.692  20.844 -0.15 -0.00    +0.042 A  
DOCKED: ENDBRANCH  13  24
DOCKED: ENDBRANCH  12  16
DOCKED: ENDBRANCH   8  12
DOCKED: ENDBRANCH   1   9
DOCKED: BRANCH   3  25
DOCKED: ATOM     25  O   UNL     1       8.791  19.870  15.284 -0.19 +0.06    -0.390 OA 
DOCKED: ATOM     26  H   UNL     1       8.167  19.240  14.889 +0.10 -0.03    +0.210 HD 
DOCKED: ENDBRANCH   3  25
DOCKED: BRANCH   6  27
DOCKED: ATOM     27  C   UNL     1      12.648  22.972  16.960 -0.20 +0.00    +0.164 C  
DOCKED: BRANCH  27  28
DOCKED: ATOM     28  N   UNL     1      11.482  23.555  17.634 -0.07 +0.03    -0.302 N  
DOCKED: ATOM     29  C   UNL     1      10.767  24.653  17.221 -0.18 -0.04    +0.239 C  
DOCKED: ATOM     30  O   UNL     1      11.151  25.465  16.388 -0.39 -0.06    -0.273 OA 
DOCKED: ATOM     31  H   UNL     1      11.088  23.020  18.404 +0.04 -0.03    +0.150 HD 
DOCKED: BRANCH  29  32
DOCKED: ATOM     32  C   UNL     1       9.412  24.791  17.923 -0.13 -0.14    +0.251 C  
DOCKED: BRANCH  32  33
DOCKED: ATOM     33  O   UNL     1       8.998  23.567  18.519 -0.03 +0.14    -0.386 OA 
DOCKED: ATOM     34  H   UNL     1       9.570  23.441  19.299 +0.03 -0.06    +0.210 HD 
DOCKED: ENDBRANCH  32  33
DOCKED: ENDBRANCH  29  32
DOCKED: ENDBRANCH  27  28
DOCKED: BRANCH  27  35
DOCKED: ATOM     35  C   UNL     1      13.852  22.727  17.938 -0.26 +0.00    -0.011 C  
DOCKED: ATOM     36  C   UNL     1      14.257  21.237  17.878 -0.24 -0.00    +0.013 C  
DOCKED: ATOM     37  C   UNL     1      15.083  23.547  17.477 -0.26 -0.00    +0.013 C  
DOCKED: ATOM     38  C   UNL     1      13.564  23.118  19.398 -0.09 -0.00    +0.013 C  
DOCKED: ENDBRANCH  27  35
DOCKED: ENDBRANCH   6  27
DOCKED: TORSDOF 10
DOCKED: TER
DOCKED: ENDMDL
________________________________________________________________________________


    FINAL DOCKED STATE:
    ________________________


Run:   10 / 50
Time taken for this run:   0.000s

DOCKED: MODEL        10
DOCKED: USER    Run = 10
DOCKED: USER
DOCKED: USER    Estimated Free Energy of Binding    =  -3.17 kcal/mol  [=(1)+(2)+(3)-(4)]
DOCKED: USER
DOCKED: USER    (1) Final Intermolecular Energy     =  -6.15 kcal/mol
DOCKED: USER        vdW + Hbond + desolv Energy     =  -5.99 kcal/mol
DOCKED: USER        Electrostatic Energy            =  -0.16 kcal/mol
DOCKED: USER        Moving Ligand-Fixed Receptor    =  -6.15 kcal/mol
DOCKED: USER        Moving Ligand-Moving Receptor   =  +0.00 kcal/mol
DOCKED: USER    (2) Final Total Internal Energy     =  -4.74 kcal/mol
DOCKED: USER    (3) Torsional Free Energy           =  +2.98 kcal/mol
DOCKED: USER    (4) Unbound System's Energy         =  -4.74 kcal/mol
DOCKED: USER
DOCKED: USER
DOCKED: REMARK  Name = 
DOCKED: REMARK  14 active torsions:
DOCKED: REMARK  status: ('A' for Active; 'I' for Inactive)
DOCKED: REMARK    1  A    between atoms: C_1  and  C_2
DOCKED: REMARK    2  A    between atoms: C_6  and  C_7
DOCKED: REMARK    3  A    between atoms: C_10  and  C_11
DOCKED: REMARK    4  A    between atoms: C_11  and  N_12
DOCKED: REMARK    5  A    between atoms: C_13  and  C_15
DOCKED: REMARK    6  A    between atoms: C_17  and  O_18
DOCKED: REMARK    7  A    between atoms: C_21  and  C_23
DOCKED: REMARK    8  A    between atoms: C_23  and  N_24
DOCKED: REMARK    9  A    between atoms: C_23  and  C_29
DOCKED: REMARK   10  A    between atoms: C_25  and  C_27
DOCKED: REMARK   11  A    between atoms: C_27  and  O_28
DOCKED: REMARK   12  A    between atoms: C_29  and  C_30
DOCKED: REMARK   13  A    between atoms: C_29  and  C_31
DOCKED: REMARK   14  A    between atoms: C_29  and  C_32
DOCKED: REMARK                            x       y       z     vdW  Elec       q    Type
DOCKED: REMARK                         _______ _______ _______ _____ _____    ______ ____
DOCKED: USER                              x       y       z     vdW  Elec       q    Type
DOCKED: USER                           _______ _______ _______ _____ _____    ______ ____
DOCKED: ROOT
DOCKED: ATOM      1  C   UNL     1      10.520  20.873  17.754 -0.14 -0.03    +0.164 C  
DOCKED: ATOM      2  C   UNL     1       9.598  19.645  17.584 -0.21 -0.01    +0.065 C  
DOCKED: ATOM      3  C   UNL     1       9.543  19.408  16.090 -0.35 -0.02    +0.134 C  
DOCKED: ATOM      4  C   UNL     1      10.948  19.783  15.633 -0.40 -0.02    +0.140 C  
DOCKED: ATOM      5  N   UNL     1      11.395  20.827  16.560 -0.16 +0.03    -0.286 N  
DOCKED: ATOM      6  C   UNL     1      12.211  21.827  16.037 -0.29 -0.00    +0.237 C  
DOCKED: ATOM      7  O   UNL     1      12.513  21.788  14.839 -0.26 -0.03    -0.274 OA 
DOCKED: ENDROOT
DOCKED: BRANCH   1   9
DOCKED: ATOM      8  N   UNL     1      11.838  19.764  19.578 -0.07 +0.04    -0.310 N  
DOCKED: ATOM      9  C   UNL     1      11.207  20.907  19.146 -0.07 -0.04    +0.234 C  
DOCKED: ATOM     10  O   UNL     1      11.205  21.912  19.856 -0.02 +0.05    -0.274 OA 
DOCKED: ATOM     11  H   UNL     1      11.481  18.862  19.293 +0.02 -0.02    +0.149 HD 
DOCKED: BRANCH   8  12
DOCKED: ATOM     12  C   UNL     1      12.526  19.794  20.842 -0.08 -0.02    +0.139 C  
DOCKED: BRANCH  12  16
DOCKED: ATOM     13  C   UNL     1      16.219  17.543  20.588 -0.24 +0.00    -0.010 A  
DOCKED: ATOM     14  C   UNL     1      15.011  16.879  20.863 -0.17 -0.00    +0.009 A  
DOCKED: ATOM     15  C   UNL     1      13.806  17.585  20.977 -0.14 -0.00    +0.006 A  
DOCKED: ATOM     16  C   UNL     1      13.788  18.980  20.859 -0.12 +0.00    -0.030 A  
DOCKED: ATOM     17  C   UNL     1      14.989  19.646  20.605 -0.17 -0.00    +0.006 A  
DOCKED: ATOM     18  C   UNL     1      16.179  18.936  20.458 -0.23 -0.00    +0.009 A  
DOCKED: BRANCH  13  24
DOCKED: ATOM     19  C   UNL     1      16.857  14.726  19.022 -0.30 -0.01    +0.067 C  
DOCKED: ATOM     20  C   UNL     1      17.789  15.621  19.763 -0.25 -0.01    +0.053 A  
DOCKED: ATOM     21  N   UNL     1      19.114  15.221  19.825 -0.13 +0.08    -0.252 NA 
DOCKED: ATOM     22  C   UNL     1      19.814  16.097  20.504 -0.08 -0.05    +0.156 A  
DOCKED: ATOM     23  S   UNL     1      18.952  17.441  21.108 -0.16 +0.02    -0.075 S  
DOCKED: ATOM     24  C   UNL     1      17.494  16.825  20.405 -0.21 -0.01    +0.042 A  
DOCKED: ENDBRANCH  13  24
DOCKED: ENDBRANCH  12  16
DOCKED: ENDBRANCH   8  12
DOCKED: ENDBRANCH   1   9
DOCKED: BRANCH   3  25
DOCKED: ATOM     25  O   UNL     1       8.532  20.239  15.532 -0.20 +0.06    -0.390 OA 
DOCKED: ATOM     26  H   UNL     1       8.921  21.104  15.322 +0.09 -0.03    +0.210 HD 
DOCKED: ENDBRANCH   3  25
DOCKED: BRANCH   6  27
DOCKED: ATOM     27  C   UNL     1      12.760  22.962  16.954 -0.19 +0.00    +0.164 C  
DOCKED: BRANCH  27  28
DOCKED: ATOM     28  N   UNL     1      11.708  23.610  17.745 -0.07 +0.03    -0.302 N  
DOCKED: ATOM     29  C   UNL     1      10.937  24.678  17.355 -0.17 -0.04    +0.239 C  
DOCKED: ATOM     30  O   UNL     1      11.190  25.415  16.411 -0.37 -0.06    -0.273 OA 
DOCKED: ATOM     31  H   UNL     1      11.435  23.143  18.606 +0.04 -0.03    +0.150 HD 
DOCKED: BRANCH  29  32
DOCKED: ATOM     32  C   UNL     1       9.703  24.887  18.239 -0.11 -0.13    +0.251 C  
DOCKED: BRANCH  32  33
DOCKED: ATOM     33  O   UNL     1       9.386  23.720  18.991 -0.02 +0.14    -0.386 OA 
DOCKED: ATOM     34  H   UNL     1      10.129  23.591  19.609 +0.03 -0.06    +0.210 HD 
DOCKED: ENDBRANCH  32  33
DOCKED: ENDBRANCH  29  32
DOCKED: ENDBRANCH  27  28
DOCKED: BRANCH  27  35
DOCKED: ATOM     35  C   UNL     1      14.021  22.591  17.814 -0.29 +0.00    -0.011 C  
DOCKED: ATOM     36  C   UNL     1      13.812  23.090  19.260 -0.11 -0.00    +0.013 C  
DOCKED: ATOM     37  C   UNL     1      14.176  21.051  17.887 -0.14 -0.00    +0.013 C  
DOCKED: ATOM     38  C   UNL     1      15.342  23.157  17.265 -0.27 -0.00    +0.013 C  
DOCKED: ENDBRANCH  27  35
DOCKED: ENDBRANCH   6  27
DOCKED: TORSDOF 10
DOCKED: TER
DOCKED: ENDMDL
________________________________________________________________________________


    FINAL DOCKED STATE:
    ________________________


Run:   11 / 50
Time taken for this run:   0.000s

DOCKED: MODEL        11
DOCKED: USER    Run = 11
DOCKED: USER
DOCKED: USER    Estimated Free Energy of Binding    =  -2.81 kcal/mol  [=(1)+(2)+(3)-(4)]
DOCKED: USER
DOCKED: USER    (1) Final Intermolecular Energy     =  -5.79 kcal/mol
DOCKED: USER        vdW + Hbond + desolv Energy     =  -5.52 kcal/mol
DOCKED: USER        Electrostatic Energy            =  -0.27 kcal/mol
DOCKED: USER        Moving Ligand-Fixed Receptor    =  -5.79 kcal/mol
DOCKED: USER        Moving Ligand-Moving Receptor   =  +0.00 kcal/mol
DOCKED: USER    (2) Final Total Internal Energy     =  -5.03 kcal/mol
DOCKED: USER    (3) Torsional Free Energy           =  +2.98 kcal/mol
DOCKED: USER    (4) Unbound System's Energy         =  -5.03 kcal/mol
DOCKED: USER
DOCKED: USER
DOCKED: REMARK  Name = 
DOCKED: REMARK  14 active torsions:
DOCKED: REMARK  status: ('A' for Active; 'I' for Inactive)
DOCKED: REMARK    1  A    between atoms: C_1  and  C_2
DOCKED: REMARK    2  A    between atoms: C_6  and  C_7
DOCKED: REMARK    3  A    between atoms: C_10  and  C_11
DOCKED: REMARK    4  A    between atoms: C_11  and  N_12
DOCKED: REMARK    5  A    between atoms: C_13  and  C_15
DOCKED: REMARK    6  A    between atoms: C_17  and  O_18
DOCKED: REMARK    7  A    between atoms: C_21  and  C_23
DOCKED: REMARK    8  A    between atoms: C_23  and  N_24
DOCKED: REMARK    9  A    between atoms: C_23  and  C_29
DOCKED: REMARK   10  A    between atoms: C_25  and  C_27
DOCKED: REMARK   11  A    between atoms: C_27  and  O_28
DOCKED: REMARK   12  A    between atoms: C_29  and  C_30
DOCKED: REMARK   13  A    between atoms: C_29  and  C_31
DOCKED: REMARK   14  A    between atoms: C_29  and  C_32
DOCKED: REMARK                            x       y       z     vdW  Elec       q    Type
DOCKED: REMARK                         _______ _______ _______ _____ _____    ______ ____
DOCKED: USER                              x       y       z     vdW  Elec       q    Type
DOCKED: USER                           _______ _______ _______ _____ _____    ______ ____
DOCKED: ROOT
DOCKED: ATOM      1  C   UNL     1      10.600  23.956  16.817 -0.23 -0.02    +0.164 C  
DOCKED: ATOM      2  C   UNL     1      11.874  24.830  16.791 -0.09 +0.01    +0.065 C  
DOCKED: ATOM      3  C   UNL     1      11.522  26.048  17.615 -0.21 -0.01    +0.134 C  
DOCKED: ATOM      4  C   UNL     1      10.619  25.477  18.702 -0.12 -0.06    +0.140 C  
DOCKED: ATOM      5  N   UNL     1       9.932  24.340  18.083 -0.07 +0.11    -0.286 N  
DOCKED: ATOM      6  C   UNL     1       8.622  24.098  18.487 -0.09 -0.12    +0.237 C  
DOCKED: ATOM      7  O   UNL     1       8.110  24.840  19.331 -0.07 +0.17    -0.274 OA 
DOCKED: ENDROOT
DOCKED: BRANCH   1   9
DOCKED: ATOM      8  N   UNL     1      10.917  21.629  17.703 -0.05 +0.05    -0.310 N  
DOCKED: ATOM      9  C   UNL     1      10.912  22.451  16.600 -0.19 -0.02    +0.234 C  
DOCKED: ATOM     10  O   UNL     1      11.147  21.982  15.486 -0.22 -0.00    -0.274 OA 
DOCKED: ATOM     11  H   UNL     1      11.196  22.004  18.599 +0.04 -0.02    +0.149 HD 
DOCKED: BRANCH   8  12
DOCKED: ATOM     12  C   UNL     1      11.151  20.223  17.512 -0.18 -0.02    +0.139 C  
DOCKED: BRANCH  12  16
DOCKED: ATOM     13  C   UNL     1       7.354  18.188  17.044 -0.21 +0.00    -0.010 A  
DOCKED: ATOM     14  C   UNL     1       8.240  17.794  18.062 -0.17 -0.00    +0.009 A  
DOCKED: ATOM     15  C   UNL     1       9.486  18.416  18.219 -0.19 -0.00    +0.006 A  
DOCKED: ATOM     16  C   UNL     1       9.892  19.423  17.335 -0.23 +0.00    -0.030 A  
DOCKED: ATOM     17  C   UNL     1       9.023  19.804  16.311 -0.33 -0.00    +0.006 A  
DOCKED: ATOM     18  C   UNL     1       7.772  19.206  16.179 -0.22 -0.00    +0.009 A  
DOCKED: BRANCH  13  24
DOCKED: ATOM     19  C   UNL     1       4.469  19.616  16.388 -0.16 -0.01    +0.067 C  
DOCKED: ATOM     20  C   UNL     1       4.773  18.177  16.627 -0.20 -0.01    +0.053 A  
DOCKED: ATOM     21  N   UNL     1       3.699  17.302  16.586 -0.13 +0.03    -0.252 NA 
DOCKED: ATOM     22  C   UNL     1       4.111  16.078  16.814 -0.16 -0.00    +0.156 A  
DOCKED: ATOM     23  S   UNL     1       5.785  15.889  17.090 -0.31 -0.00    -0.075 S  
DOCKED: ATOM     24  C   UNL     1       6.014  17.593  16.886 -0.24 -0.00    +0.042 A  
DOCKED: ENDBRANCH  13  24
DOCKED: ENDBRANCH  12  16
DOCKED: ENDBRANCH   8  12
DOCKED: ENDBRANCH   1   9
DOCKED: BRANCH   3  25
DOCKED: ATOM     25  O   UNL     1      10.863  26.992  16.779 -0.56 +0.09    -0.390 OA 
DOCKED: ATOM     26  H   UNL     1      10.073  27.319  17.241 -0.21 -0.39    +0.210 HD 
DOCKED: ENDBRANCH   3  25
DOCKED: BRANCH   6  27
DOCKED: ATOM     27  C   UNL     1       7.823  22.892  17.905 -0.10 -0.06    +0.164 C  
DOCKED: BRANCH  27  28
DOCKED: ATOM     28  N   UNL     1       7.776  21.749  18.824 -0.01 +0.08    -0.302 N  
DOCKED: ATOM     29  C   UNL     1       8.603  21.533  19.899 -0.01 -0.05    +0.239 C  
DOCKED: ATOM     30  O   UNL     1       9.664  22.113  20.093 -0.01 +0.06    -0.273 OA 
DOCKED: ATOM     31  H   UNL     1       6.976  21.127  18.734 +0.02 -0.03    +0.150 HD 
DOCKED: BRANCH  29  32
DOCKED: ATOM     32  C   UNL     1       8.078  20.460  20.859 -0.01 -0.04    +0.251 C  
DOCKED: BRANCH  32  33
DOCKED: ATOM     33  O   UNL     1       7.072  19.655  20.255 -0.00 +0.06    -0.386 OA 
DOCKED: ATOM     34  H   UNL     1       6.588  19.235  20.990 +0.01 -0.03    +0.210 HD 
DOCKED: ENDBRANCH  32  33
DOCKED: ENDBRANCH  29  32
DOCKED: ENDBRANCH  27  28
DOCKED: BRANCH  27  35
DOCKED: ATOM     35  C   UNL     1       6.418  23.238  17.296 -0.19 +0.01    -0.011 C  
DOCKED: ATOM     36  C   UNL     1       5.316  22.785  18.278 -0.06 -0.00    +0.013 C  
DOCKED: ATOM     37  C   UNL     1       6.275  24.773  17.136 -0.09 -0.01    +0.013 C  
DOCKED: ATOM     38  C   UNL     1       6.161  22.609  15.916 -0.28 -0.01    +0.013 C  
DOCKED: ENDBRANCH  27  35
DOCKED: ENDBRANCH   6  27
DOCKED: TORSDOF 10
DOCKED: TER
DOCKED: ENDMDL
________________________________________________________________________________


    FINAL DOCKED STATE:
    ________________________


Run:   12 / 50
Time taken for this run:   0.000s

DOCKED: MODEL        12
DOCKED: USER    Run = 12
DOCKED: USER
DOCKED: USER    Estimated Free Energy of Binding    =  -3.39 kcal/mol  [=(1)+(2)+(3)-(4)]
DOCKED: USER
DOCKED: USER    (1) Final Intermolecular Energy     =  -6.37 kcal/mol
DOCKED: USER        vdW + Hbond + desolv Energy     =  -6.10 kcal/mol
DOCKED: USER        Electrostatic Energy            =  -0.27 kcal/mol
DOCKED: USER        Moving Ligand-Fixed Receptor    =  -6.37 kcal/mol
DOCKED: USER        Moving Ligand-Moving Receptor   =  +0.00 kcal/mol
DOCKED: USER    (2) Final Total Internal Energy     =  -4.31 kcal/mol
DOCKED: USER    (3) Torsional Free Energy           =  +2.98 kcal/mol
DOCKED: USER    (4) Unbound System's Energy         =  -4.31 kcal/mol
DOCKED: USER
DOCKED: USER
DOCKED: REMARK  Name = 
DOCKED: REMARK  14 active torsions:
DOCKED: REMARK  status: ('A' for Active; 'I' for Inactive)
DOCKED: REMARK    1  A    between atoms: C_1  and  C_2
DOCKED: REMARK    2  A    between atoms: C_6  and  C_7
DOCKED: REMARK    3  A    between atoms: C_10  and  C_11
DOCKED: REMARK    4  A    between atoms: C_11  and  N_12
DOCKED: REMARK    5  A    between atoms: C_13  and  C_15
DOCKED: REMARK    6  A    between atoms: C_17  and  O_18
DOCKED: REMARK    7  A    between atoms: C_21  and  C_23
DOCKED: REMARK    8  A    between atoms: C_23  and  N_24
DOCKED: REMARK    9  A    between atoms: C_23  and  C_29
DOCKED: REMARK   10  A    between atoms: C_25  and  C_27
DOCKED: REMARK   11  A    between atoms: C_27  and  O_28
DOCKED: REMARK   12  A    between atoms: C_29  and  C_30
DOCKED: REMARK   13  A    between atoms: C_29  and  C_31
DOCKED: REMARK   14  A    between atoms: C_29  and  C_32
DOCKED: REMARK                            x       y       z     vdW  Elec       q    Type
DOCKED: REMARK                         _______ _______ _______ _____ _____    ______ ____
DOCKED: USER                              x       y       z     vdW  Elec       q    Type
DOCKED: USER                           _______ _______ _______ _____ _____    ______ ____
DOCKED: ROOT
DOCKED: ATOM      1  C   UNL     1      17.003  29.595  14.884 -0.20 -0.03    +0.164 C  
DOCKED: ATOM      2  C   UNL     1      16.658  28.688  16.086 -0.21 +0.01    +0.065 C  
DOCKED: ATOM      3  C   UNL     1      17.803  27.702  16.164 -0.19 +0.01    +0.134 C  
DOCKED: ATOM      4  C   UNL     1      19.006  28.540  15.746 -0.12 -0.02    +0.140 C  
DOCKED: ATOM      5  N   UNL     1      18.481  29.534  14.806 -0.11 +0.08    -0.286 N  
DOCKED: ATOM      6  C   UNL     1      19.316  29.914  13.758 -0.13 -0.10    +0.237 C  
DOCKED: ATOM      7  O   UNL     1      20.438  29.402  13.671 -0.10 +0.08    -0.274 OA 
DOCKED: ENDROOT
DOCKED: BRANCH   1   9
DOCKED: ATOM      8  N   UNL     1      17.166  32.068  15.282 -0.04 +0.13    -0.310 N  
DOCKED: ATOM      9  C   UNL     1      16.349  30.999  14.997 -0.14 -0.09    +0.234 C  
DOCKED: ATOM     10  O   UNL     1      15.142  31.176  14.838 -0.62 -0.02    -0.274 OA 
DOCKED: ATOM     11  H   UNL     1      17.988  31.925  15.854 +0.02 -0.05    +0.149 HD 
DOCKED: BRANCH   8  12
DOCKED: ATOM     12  C   UNL     1      16.584  33.382  15.338 -0.06 -0.05    +0.139 C  
DOCKED: BRANCH  12  16
DOCKED: ATOM     13  C   UNL     1      14.966  34.493  11.475 -0.09 +0.01    -0.010 A  
DOCKED: ATOM     14  C   UNL     1      16.352  34.552  11.697 -0.04 -0.01    +0.009 A  
DOCKED: ATOM     15  C   UNL     1      16.901  34.225  12.945 -0.08 -0.00    +0.006 A  
DOCKED: ATOM     16  C   UNL     1      16.070  33.868  14.013 -0.11 +0.02    -0.030 A  
DOCKED: ATOM     17  C   UNL     1      14.690  33.826  13.802 -0.18 -0.00    +0.006 A  
DOCKED: ATOM     18  C   UNL     1      14.152  34.119  12.551 -0.20 -0.01    +0.009 A  
DOCKED: BRANCH  13  24
DOCKED: ATOM     19  C   UNL     1      11.952  35.558  10.715 -0.30 -0.01    +0.067 C  
DOCKED: ATOM     20  C   UNL     1      13.082  35.209   9.809 -0.24 -0.01    +0.053 A  
DOCKED: ATOM     21  N   UNL     1      12.846  35.329   8.449 -0.21 +0.01    -0.252 NA 
DOCKED: ATOM     22  C   UNL     1      13.919  34.990   7.777 -0.11 +0.00    +0.156 A  
DOCKED: ATOM     23  S   UNL     1      15.267  34.510   8.708 -0.36 +0.03    -0.075 S  
DOCKED: ATOM     24  C   UNL     1      14.361  34.775  10.160 -0.19 -0.02    +0.042 A  
DOCKED: ENDBRANCH  13  24
DOCKED: ENDBRANCH  12  16
DOCKED: ENDBRANCH   8  12
DOCKED: ENDBRANCH   1   9
DOCKED: BRANCH   3  25
DOCKED: ATOM     25  O   UNL     1      17.538  26.621  15.278 -0.65 -0.17    -0.390 OA 
DOCKED: ATOM     26  H   UNL     1      18.051  25.849  15.567 +0.08 +0.02    +0.210 HD 
DOCKED: ENDBRANCH   3  25
DOCKED: BRANCH   6  27
DOCKED: ATOM     27  C   UNL     1      18.855  30.988  12.726 -0.16 -0.12    +0.164 C  
DOCKED: BRANCH  27  28
DOCKED: ATOM     28  N   UNL     1      19.336  32.334  13.059 -0.03 +0.15    -0.302 N  
DOCKED: ATOM     29  C   UNL     1      19.981  32.707  14.213 -0.00 -0.08    +0.239 C  
DOCKED: ATOM     30  O   UNL     1      20.013  32.044  15.241 -0.00 +0.08    -0.273 OA 
DOCKED: ATOM     31  H   UNL     1      19.305  33.024  12.312 +0.03 -0.08    +0.150 HD 
DOCKED: BRANCH  29  32
DOCKED: ATOM     32  C   UNL     1      20.667  34.073  14.107 +0.00 -0.07    +0.251 C  
DOCKED: BRANCH  32  33
DOCKED: ATOM     33  O   UNL     1      20.099  34.872  13.075 +0.00 +0.11    -0.386 OA 
DOCKED: ATOM     34  H   UNL     1      20.745  34.865  12.345 +0.01 -0.05    +0.210 HD 
DOCKED: ENDBRANCH  32  33
DOCKED: ENDBRANCH  29  32
DOCKED: ENDBRANCH  27  28
DOCKED: BRANCH  27  35
DOCKED: ATOM     35  C   UNL     1      19.079  30.621  11.216 -0.36 +0.01    -0.011 C  
DOCKED: ATOM     36  C   UNL     1      18.694  31.832  10.339 -0.27 -0.01    +0.013 C  
DOCKED: ATOM     37  C   UNL     1      20.581  30.338  10.959 -0.29 -0.00    +0.013 C  
DOCKED: ATOM     38  C   UNL     1      18.295  29.383  10.749 -0.45 -0.01    +0.013 C  
DOCKED: ENDBRANCH  27  35
DOCKED: ENDBRANCH   6  27
DOCKED: TORSDOF 10
DOCKED: TER
DOCKED: ENDMDL
________________________________________________________________________________


    FINAL DOCKED STATE:
    ________________________


Run:   13 / 50
Time taken for this run:   0.000s

DOCKED: MODEL        13
DOCKED: USER    Run = 13
DOCKED: USER
DOCKED: USER    Estimated Free Energy of Binding    =  -3.06 kcal/mol  [=(1)+(2)+(3)-(4)]
DOCKED: USER
DOCKED: USER    (1) Final Intermolecular Energy     =  -6.04 kcal/mol
DOCKED: USER        vdW + Hbond + desolv Energy     =  -6.04 kcal/mol
DOCKED: USER        Electrostatic Energy            =  -0.01 kcal/mol
DOCKED: USER        Moving Ligand-Fixed Receptor    =  -6.04 kcal/mol
DOCKED: USER        Moving Ligand-Moving Receptor   =  +0.00 kcal/mol
DOCKED: USER    (2) Final Total Internal Energy     =  -4.40 kcal/mol
DOCKED: USER    (3) Torsional Free Energy           =  +2.98 kcal/mol
DOCKED: USER    (4) Unbound System's Energy         =  -4.40 kcal/mol
DOCKED: USER
DOCKED: USER
DOCKED: REMARK  Name = 
DOCKED: REMARK  14 active torsions:
DOCKED: REMARK  status: ('A' for Active; 'I' for Inactive)
DOCKED: REMARK    1  A    between atoms: C_1  and  C_2
DOCKED: REMARK    2  A    between atoms: C_6  and  C_7
DOCKED: REMARK    3  A    between atoms: C_10  and  C_11
DOCKED: REMARK    4  A    between atoms: C_11  and  N_12
DOCKED: REMARK    5  A    between atoms: C_13  and  C_15
DOCKED: REMARK    6  A    between atoms: C_17  and  O_18
DOCKED: REMARK    7  A    between atoms: C_21  and  C_23
DOCKED: REMARK    8  A    between atoms: C_23  and  N_24
DOCKED: REMARK    9  A    between atoms: C_23  and  C_29
DOCKED: REMARK   10  A    between atoms: C_25  and  C_27
DOCKED: REMARK   11  A    between atoms: C_27  and  O_28
DOCKED: REMARK   12  A    between atoms: C_29  and  C_30
DOCKED: REMARK   13  A    between atoms: C_29  and  C_31
DOCKED: REMARK   14  A    between atoms: C_29  and  C_32
DOCKED: REMARK                            x       y       z     vdW  Elec       q    Type
DOCKED: REMARK                         _______ _______ _______ _____ _____    ______ ____
DOCKED: USER                              x       y       z     vdW  Elec       q    Type
DOCKED: USER                           _______ _______ _______ _____ _____    ______ ____
DOCKED: ROOT
DOCKED: ATOM      1  C   UNL     1       6.791  22.378  16.073 -0.24 -0.06    +0.164 C  
DOCKED: ATOM      2  C   UNL     1       5.579  23.235  15.646 -0.26 -0.03    +0.065 C  
DOCKED: ATOM      3  C   UNL     1       4.387  22.565  16.295 -0.16 -0.05    +0.134 C  
DOCKED: ATOM      4  C   UNL     1       4.953  22.068  17.620 -0.06 -0.04    +0.140 C  
DOCKED: ATOM      5  N   UNL     1       6.364  21.773  17.356 -0.05 +0.08    -0.286 N  
DOCKED: ATOM      6  C   UNL     1       6.922  20.698  18.043 -0.05 -0.05    +0.237 C  
DOCKED: ATOM      7  O   UNL     1       6.214  20.056  18.827 -0.02 +0.05    -0.274 OA 
DOCKED: ENDROOT
DOCKED: BRANCH   1   9
DOCKED: ATOM      8  N   UNL     1       8.921  23.095  14.957 -0.13 +0.08    -0.310 N  
DOCKED: ATOM      9  C   UNL     1       8.116  23.187  16.069 -0.23 -0.09    +0.234 C  
DOCKED: ATOM     10  O   UNL     1       8.456  23.898  17.013 -0.18 +0.14    -0.274 OA 
DOCKED: ATOM     11  H   UNL     1       8.937  22.235  14.426 -0.13 -0.03    +0.149 HD 
DOCKED: BRANCH   8  12
DOCKED: ATOM     12  C   UNL     1      10.126  23.880  14.914 -0.32 -0.00    +0.139 C  
DOCKED: BRANCH  12  16
DOCKED: ATOM     13  C   UNL     1      13.043  22.189  17.636 -0.24 +0.00    -0.010 A  
DOCKED: ATOM     14  C   UNL     1      12.740  23.560  17.696 -0.17 -0.00    +0.009 A  
DOCKED: ATOM     15  C   UNL     1      11.821  24.139  16.810 -0.19 +0.00    +0.006 A  
DOCKED: ATOM     16  C   UNL     1      11.211  23.366  15.815 -0.29 -0.00    -0.030 A  
DOCKED: ATOM     17  C   UNL     1      11.524  22.006  15.740 -0.34 -0.00    +0.006 A  
DOCKED: ATOM     18  C   UNL     1      12.412  21.429  16.644 -0.33 -0.00    +0.009 A  
DOCKED: BRANCH  13  24
DOCKED: ATOM     19  C   UNL     1      16.167  22.885  18.378 -0.21 -0.01    +0.067 C  
DOCKED: ATOM     20  C   UNL     1      15.294  21.801  18.908 -0.14 -0.01    +0.053 A  
DOCKED: ATOM     21  N   UNL     1      15.864  20.943  19.836 -0.34 -0.02    -0.252 NA 
DOCKED: ATOM     22  C   UNL     1      14.988  20.044  20.211 -0.15 -0.01    +0.156 A  
DOCKED: ATOM     23  S   UNL     1      13.443  20.156  19.494 -0.17 +0.01    -0.075 S  
DOCKED: ATOM     24  C   UNL     1      13.961  21.538  18.589 -0.21 -0.01    +0.042 A  
DOCKED: ENDBRANCH  13  24
DOCKED: ENDBRANCH  12  16
DOCKED: ENDBRANCH   8  12
DOCKED: ENDBRANCH   1   9
DOCKED: BRANCH   3  25
DOCKED: ATOM     25  O   UNL     1       3.936  21.514  15.449 -0.10 +0.10    -0.390 OA 
DOCKED: ATOM     26  H   UNL     1       3.608  20.787  16.004 +0.06 -0.04    +0.210 HD 
DOCKED: ENDBRANCH   3  25
DOCKED: BRANCH   6  27
DOCKED: ATOM     27  C   UNL     1       8.424  20.328  17.850 -0.10 -0.03    +0.164 C  
DOCKED: BRANCH  27  28
DOCKED: ATOM     28  N   UNL     1       9.170  20.311  19.114 -0.02 +0.05    -0.302 N  
DOCKED: ATOM     29  C   UNL     1       9.893  21.349  19.648 -0.02 -0.04    +0.239 C  
DOCKED: ATOM     30  O   UNL     1      10.246  22.346  19.030 -0.02 +0.06    -0.273 OA 
DOCKED: ATOM     31  H   UNL     1       9.030  19.500  19.712 +0.02 -0.02    +0.150 HD 
DOCKED: BRANCH  29  32
DOCKED: ATOM     32  C   UNL     1      10.246  21.144  21.124 -0.01 -0.04    +0.251 C  
DOCKED: BRANCH  32  33
DOCKED: ATOM     33  O   UNL     1      10.217  19.769  21.490 -0.01 +0.05    -0.386 OA 
DOCKED: ATOM     34  H   UNL     1      11.133  19.535  21.730 +0.01 -0.03    +0.210 HD 
DOCKED: ENDBRANCH  32  33
DOCKED: ENDBRANCH  29  32
DOCKED: ENDBRANCH  27  28
DOCKED: BRANCH  27  35
DOCKED: ATOM     35  C   UNL     1       8.704  19.062  16.965 -0.29 +0.00    -0.011 C  
DOCKED: ATOM     36  C   UNL     1       7.361  18.393  16.600 -0.26 -0.00    +0.013 C  
DOCKED: ATOM     37  C   UNL     1       9.372  19.487  15.632 -0.43 -0.00    +0.013 C  
DOCKED: ATOM     38  C   UNL     1       9.628  18.026  17.628 -0.23 -0.00    +0.013 C  
DOCKED: ENDBRANCH  27  35
DOCKED: ENDBRANCH   6  27
DOCKED: TORSDOF 10
DOCKED: TER
DOCKED: ENDMDL
________________________________________________________________________________


    FINAL DOCKED STATE:
    ________________________


Run:   14 / 50
Time taken for this run:   0.000s

DOCKED: MODEL        14
DOCKED: USER    Run = 14
DOCKED: USER
DOCKED: USER    Estimated Free Energy of Binding    =  -2.45 kcal/mol  [=(1)+(2)+(3)-(4)]
DOCKED: USER
DOCKED: USER    (1) Final Intermolecular Energy     =  -5.43 kcal/mol
DOCKED: USER        vdW + Hbond + desolv Energy     =  -5.55 kcal/mol
DOCKED: USER        Electrostatic Energy            =  +0.11 kcal/mol
DOCKED: USER        Moving Ligand-Fixed Receptor    =  -5.43 kcal/mol
DOCKED: USER        Moving Ligand-Moving Receptor   =  +0.00 kcal/mol
DOCKED: USER    (2) Final Total Internal Energy     =  -5.28 kcal/mol
DOCKED: USER    (3) Torsional Free Energy           =  +2.98 kcal/mol
DOCKED: USER    (4) Unbound System's Energy         =  -5.28 kcal/mol
DOCKED: USER
DOCKED: USER
DOCKED: REMARK  Name = 
DOCKED: REMARK  14 active torsions:
DOCKED: REMARK  status: ('A' for Active; 'I' for Inactive)
DOCKED: REMARK    1  A    between atoms: C_1  and  C_2
DOCKED: REMARK    2  A    between atoms: C_6  and  C_7
DOCKED: REMARK    3  A    between atoms: C_10  and  C_11
DOCKED: REMARK    4  A    between atoms: C_11  and  N_12
DOCKED: REMARK    5  A    between atoms: C_13  and  C_15
DOCKED: REMARK    6  A    between atoms: C_17  and  O_18
DOCKED: REMARK    7  A    between atoms: C_21  and  C_23
DOCKED: REMARK    8  A    between atoms: C_23  and  N_24
DOCKED: REMARK    9  A    between atoms: C_23  and  C_29
DOCKED: REMARK   10  A    between atoms: C_25  and  C_27
DOCKED: REMARK   11  A    between atoms: C_27  and  O_28
DOCKED: REMARK   12  A    between atoms: C_29  and  C_30
DOCKED: REMARK   13  A    between atoms: C_29  and  C_31
DOCKED: REMARK   14  A    between atoms: C_29  and  C_32
DOCKED: REMARK                            x       y       z     vdW  Elec       q    Type
DOCKED: REMARK                         _______ _______ _______ _____ _____    ______ ____
DOCKED: USER                              x       y       z     vdW  Elec       q    Type
DOCKED: USER                           _______ _______ _______ _____ _____    ______ ____
DOCKED: ROOT
DOCKED: ATOM      1  C   UNL     1      15.687  26.259  18.083 -0.11 +0.00    +0.164 C  
DOCKED: ATOM      2  C   UNL     1      15.914  27.553  17.269 -0.17 +0.01    +0.065 C  
DOCKED: ATOM      3  C   UNL     1      17.060  27.224  16.338 -0.24 +0.02    +0.134 C  
DOCKED: ATOM      4  C   UNL     1      16.818  25.757  16.001 -0.22 +0.02    +0.140 C  
DOCKED: ATOM      5  N   UNL     1      16.174  25.185  17.187 -0.14 -0.01    -0.286 N  
DOCKED: ATOM      6  C   UNL     1      16.482  23.863  17.496 -0.23 -0.02    +0.237 C  
DOCKED: ATOM      7  O   UNL     1      17.271  23.247  16.771 -0.30 +0.06    -0.274 OA 
DOCKED: ENDROOT
DOCKED: BRANCH   1   9
DOCKED: ATOM      8  N   UNL     1      13.209  26.501  17.767 -0.11 -0.05    -0.310 N  
DOCKED: ATOM      9  C   UNL     1      14.232  26.145  18.614 -0.08 -0.00    +0.234 C  
DOCKED: ATOM     10  O   UNL     1      13.976  25.747  19.750 -0.01 +0.03    -0.274 OA 
DOCKED: ATOM     11  H   UNL     1      13.364  27.227  17.080 +0.02 +0.08    +0.149 HD 
DOCKED: BRANCH   8  12
DOCKED: ATOM     12  C   UNL     1      11.853  26.350  18.224 -0.17 -0.02    +0.139 C  
DOCKED: BRANCH  12  16
DOCKED: ATOM     13  C   UNL     1      10.127  22.610  16.882 -0.21 +0.00    -0.010 A  
DOCKED: ATOM     14  C   UNL     1      10.577  23.551  15.941 -0.35 -0.00    +0.009 A  
DOCKED: ATOM     15  C   UNL     1      11.114  24.781  16.346 -0.19 +0.00    +0.006 A  
DOCKED: ATOM     16  C   UNL     1      11.178  25.114  17.704 -0.20 +0.01    -0.030 A  
DOCKED: ATOM     17  C   UNL     1      10.715  24.188  18.642 -0.09 -0.00    +0.006 A  
DOCKED: ATOM     18  C   UNL     1      10.212  22.954  18.236 -0.09 -0.00    +0.009 A  
DOCKED: BRANCH  13  24
DOCKED: ATOM     19  C   UNL     1      11.623  20.119  15.347 -0.38 -0.01    +0.067 C  
DOCKED: ATOM     20  C   UNL     1      10.215  20.219  15.825 -0.33 -0.01    +0.053 A  
DOCKED: ATOM     21  N   UNL     1       9.400  19.125  15.585 -0.26 +0.04    -0.252 NA 
DOCKED: ATOM     22  C   UNL     1       8.198  19.352  16.054 -0.22 -0.02    +0.156 A  
DOCKED: ATOM     23  S   UNL     1       7.958  20.867  16.804 -0.28 +0.02    -0.075 S  
DOCKED: ATOM     24  C   UNL     1       9.609  21.285  16.492 -0.24 -0.01    +0.042 A  
DOCKED: ENDBRANCH  13  24
DOCKED: ENDBRANCH  12  16
DOCKED: ENDBRANCH   8  12
DOCKED: ENDBRANCH   1   9
DOCKED: BRANCH   3  25
DOCKED: ATOM     25  O   UNL     1      18.286  27.445  17.024 -0.04 +0.02    -0.390 OA 
DOCKED: ATOM     26  H   UNL     1      18.425  26.721  17.656 +0.04 -0.02    +0.210 HD 
DOCKED: ENDBRANCH   3  25
DOCKED: BRANCH   6  27
DOCKED: ATOM     27  C   UNL     1      15.821  23.161  18.721 -0.16 -0.02    +0.164 C  
DOCKED: BRANCH  27  28
DOCKED: ATOM     28  N   UNL     1      15.870  23.981  19.938 -0.01 +0.03    -0.302 N  
DOCKED: ATOM     29  C   UNL     1      17.002  24.456  20.554 -0.02 -0.03    +0.239 C  
DOCKED: ATOM     30  O   UNL     1      18.137  24.050  20.342 -0.03 +0.03    -0.273 OA 
DOCKED: ATOM     31  H   UNL     1      14.982  24.338  20.281 +0.02 -0.02    +0.150 HD 
DOCKED: BRANCH  29  32
DOCKED: ATOM     32  C   UNL     1      16.714  25.563  21.574 +0.00 -0.03    +0.251 C  
DOCKED: BRANCH  32  33
DOCKED: ATOM     33  O   UNL     1      15.349  25.570  21.977 +0.00 +0.06    -0.386 OA 
DOCKED: ATOM     34  H   UNL     1      14.829  25.688  21.161 +0.01 -0.03    +0.210 HD 
DOCKED: ENDBRANCH  32  33
DOCKED: ENDBRANCH  29  32
DOCKED: ENDBRANCH  27  28
DOCKED: BRANCH  27  35
DOCKED: ATOM     35  C   UNL     1      14.401  22.542  18.466 -0.24 +0.00    -0.011 C  
DOCKED: ATOM     36  C   UNL     1      14.518  21.003  18.435 -0.24 -0.00    +0.013 C  
DOCKED: ATOM     37  C   UNL     1      13.451  22.898  19.638 -0.08 -0.00    +0.013 C  
DOCKED: ATOM     38  C   UNL     1      13.729  23.029  17.170 -0.23 +0.00    +0.013 C  
DOCKED: ENDBRANCH  27  35
DOCKED: ENDBRANCH   6  27
DOCKED: TORSDOF 10
DOCKED: TER
DOCKED: ENDMDL
________________________________________________________________________________


    FINAL DOCKED STATE:
    ________________________


Run:   15 / 50
Time taken for this run:   0.000s

DOCKED: MODEL        15
DOCKED: USER    Run = 15
DOCKED: USER
DOCKED: USER    Estimated Free Energy of Binding    =  -3.62 kcal/mol  [=(1)+(2)+(3)-(4)]
DOCKED: USER
DOCKED: USER    (1) Final Intermolecular Energy     =  -6.60 kcal/mol
DOCKED: USER        vdW + Hbond + desolv Energy     =  -6.07 kcal/mol
DOCKED: USER        Electrostatic Energy            =  -0.54 kcal/mol
DOCKED: USER        Moving Ligand-Fixed Receptor    =  -6.60 kcal/mol
DOCKED: USER        Moving Ligand-Moving Receptor   =  +0.00 kcal/mol
DOCKED: USER    (2) Final Total Internal Energy     =  -4.17 kcal/mol
DOCKED: USER    (3) Torsional Free Energy           =  +2.98 kcal/mol
DOCKED: USER    (4) Unbound System's Energy         =  -4.17 kcal/mol
DOCKED: USER
DOCKED: USER
DOCKED: REMARK  Name = 
DOCKED: REMARK  14 active torsions:
DOCKED: REMARK  status: ('A' for Active; 'I' for Inactive)
DOCKED: REMARK    1  A    between atoms: C_1  and  C_2
DOCKED: REMARK    2  A    between atoms: C_6  and  C_7
DOCKED: REMARK    3  A    between atoms: C_10  and  C_11
DOCKED: REMARK    4  A    between atoms: C_11  and  N_12
DOCKED: REMARK    5  A    between atoms: C_13  and  C_15
DOCKED: REMARK    6  A    between atoms: C_17  and  O_18
DOCKED: REMARK    7  A    between atoms: C_21  and  C_23
DOCKED: REMARK    8  A    between atoms: C_23  and  N_24
DOCKED: REMARK    9  A    between atoms: C_23  and  C_29
DOCKED: REMARK   10  A    between atoms: C_25  and  C_27
DOCKED: REMARK   11  A    between atoms: C_27  and  O_28
DOCKED: REMARK   12  A    between atoms: C_29  and  C_30
DOCKED: REMARK   13  A    between atoms: C_29  and  C_31
DOCKED: REMARK   14  A    between atoms: C_29  and  C_32
DOCKED: REMARK                            x       y       z     vdW  Elec       q    Type
DOCKED: REMARK                         _______ _______ _______ _____ _____    ______ ____
DOCKED: USER                              x       y       z     vdW  Elec       q    Type
DOCKED: USER                           _______ _______ _______ _____ _____    ______ ____
DOCKED: ROOT
DOCKED: ATOM      1  C   UNL     1      16.433  31.497  15.746 -0.12 -0.04    +0.164 C  
DOCKED: ATOM      2  C   UNL     1      15.417  30.854  16.716 -0.12 +0.00    +0.065 C  
DOCKED: ATOM      3  C   UNL     1      14.227  31.789  16.702 -0.13 +0.01    +0.134 C  
DOCKED: ATOM      4  C   UNL     1      14.193  32.276  15.257 -0.09 -0.01    +0.140 C  
DOCKED: ATOM      5  N   UNL     1      15.588  32.275  14.811 -0.14 +0.13    -0.286 N  
DOCKED: ATOM      6  C   UNL     1      15.966  33.276  13.920 -0.12 -0.18    +0.237 C  
DOCKED: ATOM      7  O   UNL     1      15.123  34.103  13.557 -0.12 +0.17    -0.274 OA 
DOCKED: ENDROOT
DOCKED: BRANCH   1   9
DOCKED: ATOM      8  N   UNL     1      17.574  30.454  13.769 -0.06 +0.29    -0.310 N  
DOCKED: ATOM      9  C   UNL     1      17.406  30.452  15.134 -0.13 -0.08    +0.234 C  
DOCKED: ATOM     10  O   UNL     1      18.021  29.642  15.826 -0.06 +0.05    -0.274 OA 
DOCKED: ATOM     11  H   UNL     1      16.805  30.729  13.175 -0.41 -0.36    +0.149 HD 
DOCKED: BRANCH   8  12
DOCKED: ATOM     12  C   UNL     1      18.513  29.529  13.191 -0.19 -0.09    +0.139 C  
DOCKED: BRANCH  12  16
DOCKED: ATOM     13  C   UNL     1      21.361  31.114  10.336 -0.22 +0.00    -0.010 A  
DOCKED: ATOM     14  C   UNL     1      21.676  31.099  11.706 -0.12 -0.00    +0.009 A  
DOCKED: ATOM     15  C   UNL     1      20.763  30.618  12.654 -0.12 -0.00    +0.006 A  
DOCKED: ATOM     16  C   UNL     1      19.495  30.175  12.257 -0.23 +0.02    -0.030 A  
DOCKED: ATOM     17  C   UNL     1      19.171  30.205  10.899 -0.39 -0.00    +0.006 A  
DOCKED: ATOM     18  C   UNL     1      20.094  30.653   9.957 -0.35 -0.00    +0.009 A  
DOCKED: BRANCH  13  24
DOCKED: ATOM     19  C   UNL     1      24.647  31.109  10.359 -0.18 -0.02    +0.067 C  
DOCKED: ATOM     20  C   UNL     1      23.714  31.587   9.299 -0.27 -0.00    +0.053 A  
DOCKED: ATOM     21  N   UNL     1      24.293  32.122   8.160 -0.56 -0.05    -0.252 NA 
DOCKED: ATOM     22  C   UNL     1      23.361  32.500   7.320 -0.23 +0.03    +0.156 A  
DOCKED: ATOM     23  S   UNL     1      21.750  32.247   7.824 -0.32 -0.03    -0.075 S  
DOCKED: ATOM     24  C   UNL     1      22.319  31.560   9.308 -0.25 -0.00    +0.042 A  
DOCKED: ENDBRANCH  13  24
DOCKED: ENDBRANCH  12  16
DOCKED: ENDBRANCH   8  12
DOCKED: ENDBRANCH   1   9
DOCKED: BRANCH   3  25
DOCKED: ATOM     25  O   UNL     1      14.455  32.835  17.639 -0.02 +0.05    -0.390 OA 
DOCKED: ATOM     26  H   UNL     1      14.903  32.464  18.416 +0.02 -0.03    +0.210 HD 
DOCKED: ENDBRANCH   3  25
DOCKED: BRANCH   6  27
DOCKED: ATOM     27  C   UNL     1      17.422  33.336  13.366 -0.08 -0.13    +0.164 C  
DOCKED: BRANCH  27  28
DOCKED: ATOM     28  N   UNL     1      17.471  33.669  11.938 +0.02 +0.32    -0.302 N  
DOCKED: ATOM     29  C   UNL     1      18.569  33.579  11.118 -0.07 -0.15    +0.239 C  
DOCKED: ATOM     30  O   UNL     1      19.725  33.469  11.506 -0.03 +0.10    -0.273 OA 
DOCKED: ATOM     31  H   UNL     1      16.580  33.858  11.485 -0.34 -0.22    +0.150 HD 
DOCKED: BRANCH  29  32
DOCKED: ATOM     32  C   UNL     1      18.218  33.647   9.628 -0.12 -0.11    +0.251 C  
DOCKED: BRANCH  32  33
DOCKED: ATOM     33  O   UNL     1      16.812  33.720   9.419 -0.08 +0.33    -0.386 OA 
DOCKED: ATOM     34  H   UNL     1      16.424  32.999   9.948 -0.34 -0.52    +0.210 HD 
DOCKED: ENDBRANCH  32  33
DOCKED: ENDBRANCH  29  32
DOCKED: ENDBRANCH  27  28
DOCKED: BRANCH  27  35
DOCKED: ATOM     35  C   UNL     1      18.440  34.175  14.219 -0.03 +0.00    -0.011 C  
DOCKED: ATOM     36  C   UNL     1      17.828  34.451  15.609 -0.01 -0.00    +0.013 C  
DOCKED: ATOM     37  C   UNL     1      19.735  33.356  14.452 -0.01 -0.00    +0.013 C  
DOCKED: ATOM     38  C   UNL     1      18.853  35.507  13.569 -0.01 -0.00    +0.013 C  
DOCKED: ENDBRANCH  27  35
DOCKED: ENDBRANCH   6  27
DOCKED: TORSDOF 10
DOCKED: TER
DOCKED: ENDMDL
________________________________________________________________________________


    FINAL DOCKED STATE:
    ________________________


Run:   16 / 50
Time taken for this run:   0.000s

DOCKED: MODEL        16
DOCKED: USER    Run = 16
DOCKED: USER
DOCKED: USER    Estimated Free Energy of Binding    =  -2.92 kcal/mol  [=(1)+(2)+(3)-(4)]
DOCKED: USER
DOCKED: USER    (1) Final Intermolecular Energy     =  -5.90 kcal/mol
DOCKED: USER        vdW + Hbond + desolv Energy     =  -5.53 kcal/mol
DOCKED: USER        Electrostatic Energy            =  -0.38 kcal/mol
DOCKED: USER        Moving Ligand-Fixed Receptor    =  -5.90 kcal/mol
DOCKED: USER        Moving Ligand-Moving Receptor   =  +0.00 kcal/mol
DOCKED: USER    (2) Final Total Internal Energy     =  -4.70 kcal/mol
DOCKED: USER    (3) Torsional Free Energy           =  +2.98 kcal/mol
DOCKED: USER    (4) Unbound System's Energy         =  -4.70 kcal/mol
DOCKED: USER
DOCKED: USER
DOCKED: REMARK  Name = 
DOCKED: REMARK  14 active torsions:
DOCKED: REMARK  status: ('A' for Active; 'I' for Inactive)
DOCKED: REMARK    1  A    between atoms: C_1  and  C_2
DOCKED: REMARK    2  A    between atoms: C_6  and  C_7
DOCKED: REMARK    3  A    between atoms: C_10  and  C_11
DOCKED: REMARK    4  A    between atoms: C_11  and  N_12
DOCKED: REMARK    5  A    between atoms: C_13  and  C_15
DOCKED: REMARK    6  A    between atoms: C_17  and  O_18
DOCKED: REMARK    7  A    between atoms: C_21  and  C_23
DOCKED: REMARK    8  A    between atoms: C_23  and  N_24
DOCKED: REMARK    9  A    between atoms: C_23  and  C_29
DOCKED: REMARK   10  A    between atoms: C_25  and  C_27
DOCKED: REMARK   11  A    between atoms: C_27  and  O_28
DOCKED: REMARK   12  A    between atoms: C_29  and  C_30
DOCKED: REMARK   13  A    between atoms: C_29  and  C_31
DOCKED: REMARK   14  A    between atoms: C_29  and  C_32
DOCKED: REMARK                            x       y       z     vdW  Elec       q    Type
DOCKED: REMARK                         _______ _______ _______ _____ _____    ______ ____
DOCKED: USER                              x       y       z     vdW  Elec       q    Type
DOCKED: USER                           _______ _______ _______ _____ _____    ______ ____
DOCKED: ROOT
DOCKED: ATOM      1  C   UNL     1      12.914  20.956  19.954 -0.09 -0.02    +0.164 C  
DOCKED: ATOM      2  C   UNL     1      13.946  20.350  20.933 -0.10 -0.01    +0.065 C  
DOCKED: ATOM      3  C   UNL     1      15.291  20.667  20.318 -0.15 -0.01    +0.134 C  
DOCKED: ATOM      4  C   UNL     1      15.065  22.037  19.689 -0.13 -0.01    +0.140 C  
DOCKED: ATOM      5  N   UNL     1      13.652  22.061  19.300 -0.05 +0.04    -0.286 N  
DOCKED: ATOM      6  C   UNL     1      13.329  22.760  18.140 -0.14 -0.02    +0.237 C  
DOCKED: ATOM      7  O   UNL     1      14.232  23.315  17.505 -0.18 +0.00    -0.274 OA 
DOCKED: ENDROOT
DOCKED: BRANCH   1   9
DOCKED: ATOM      8  N   UNL     1      11.296  22.632  20.886 +0.00 +0.06    -0.310 N  
DOCKED: ATOM      9  C   UNL     1      11.573  21.305  20.654 -0.02 -0.04    +0.234 C  
DOCKED: ATOM     10  O   UNL     1      10.765  20.442  20.995 -0.02 +0.04    -0.274 OA 
DOCKED: ATOM     11  H   UNL     1      12.056  23.274  21.063 +0.01 -0.03    +0.149 HD 
DOCKED: BRANCH   8  12
DOCKED: ATOM     12  C   UNL     1      10.033  22.976  21.484 -0.00 -0.03    +0.139 C  
DOCKED: BRANCH  12  16
DOCKED: ATOM     13  C   UNL     1       7.071  23.542  18.372 -0.10 +0.00    -0.010 A  
DOCKED: ATOM     14  C   UNL     1       7.178  24.476  19.417 -0.07 -0.01    +0.009 A  
DOCKED: ATOM     15  C   UNL     1       8.108  24.304  20.451 -0.03 -0.00    +0.006 A  
DOCKED: ATOM     16  C   UNL     1       8.929  23.171  20.485 -0.01 +0.01    -0.030 A  
DOCKED: ATOM     17  C   UNL     1       8.813  22.230  19.459 -0.03 -0.00    +0.006 A  
DOCKED: ATOM     18  C   UNL     1       7.910  22.422  18.416 -0.07 -0.00    +0.009 A  
DOCKED: BRANCH  13  24
DOCKED: ATOM     19  C   UNL     1       6.625  21.701  15.688 -0.26 -0.02    +0.067 C  
DOCKED: ATOM     20  C   UNL     1       5.948  22.968  16.082 -0.25 -0.02    +0.053 A  
DOCKED: ATOM     21  N   UNL     1       5.003  23.466  15.200 -0.19 +0.12    -0.252 NA 
DOCKED: ATOM     22  C   UNL     1       4.492  24.577  15.671 -0.22 -0.09    +0.156 A  
DOCKED: ATOM     23  S   UNL     1       5.097  25.100  17.180 -0.19 +0.07    -0.075 S  
DOCKED: ATOM     24  C   UNL     1       6.144  23.722  17.240 -0.18 -0.02    +0.042 A  
DOCKED: ENDBRANCH  13  24
DOCKED: ENDBRANCH  12  16
DOCKED: ENDBRANCH   8  12
DOCKED: ENDBRANCH   1   9
DOCKED: BRANCH   3  25
DOCKED: ATOM     25  O   UNL     1      15.609  19.660  19.366 -0.36 -0.04    -0.390 OA 
DOCKED: ATOM     26  H   UNL     1      15.428  18.791  19.759 +0.05 -0.02    +0.210 HD 
DOCKED: ENDBRANCH   3  25
DOCKED: BRANCH   6  27
DOCKED: ATOM     27  C   UNL     1      11.848  22.866  17.666 -0.14 -0.02    +0.164 C  
DOCKED: BRANCH  27  28
DOCKED: ATOM     28  N   UNL     1      11.359  24.249  17.642 -0.09 +0.04    -0.302 N  
DOCKED: ATOM     29  C   UNL     1      11.572  25.205  18.604 -0.08 -0.05    +0.239 C  
DOCKED: ATOM     30  O   UNL     1      11.967  24.977  19.741 -0.01 +0.06    -0.273 OA 
DOCKED: ATOM     31  H   UNL     1      10.934  24.565  16.773 +0.05 -0.01    +0.150 HD 
DOCKED: BRANCH  29  32
DOCKED: ATOM     32  C   UNL     1      11.250  26.625  18.127 -0.15 -0.09    +0.251 C  
DOCKED: BRANCH  32  33
DOCKED: ATOM     33  O   UNL     1      10.917  26.656  16.744 -0.56 +0.02    -0.386 OA 
DOCKED: ATOM     34  H   UNL     1      10.322  27.420  16.628 -0.28 -0.27    +0.210 HD 
DOCKED: ENDBRANCH  32  33
DOCKED: ENDBRANCH  29  32
DOCKED: ENDBRANCH  27  28
DOCKED: BRANCH  27  35
DOCKED: ATOM     35  C   UNL     1      11.496  22.077  16.355 -0.35 +0.00    -0.011 C  
DOCKED: ATOM     36  C   UNL     1      11.034  23.076  15.271 -0.36 +0.00    +0.013 C  
DOCKED: ATOM     37  C   UNL     1      12.763  21.373  15.806 -0.46 -0.00    +0.013 C  
DOCKED: ATOM     38  C   UNL     1      10.419  20.995  16.544 -0.31 -0.00    +0.013 C  
DOCKED: ENDBRANCH  27  35
DOCKED: ENDBRANCH   6  27
DOCKED: TORSDOF 10
DOCKED: TER
DOCKED: ENDMDL
________________________________________________________________________________


    FINAL DOCKED STATE:
    ________________________


Run:   17 / 50
Time taken for this run:   0.000s

DOCKED: MODEL        17
DOCKED: USER    Run = 17
DOCKED: USER
DOCKED: USER    Estimated Free Energy of Binding    =  -2.59 kcal/mol  [=(1)+(2)+(3)-(4)]
DOCKED: USER
DOCKED: USER    (1) Final Intermolecular Energy     =  -5.57 kcal/mol
DOCKED: USER        vdW + Hbond + desolv Energy     =  -5.61 kcal/mol
DOCKED: USER        Electrostatic Energy            =  +0.04 kcal/mol
DOCKED: USER        Moving Ligand-Fixed Receptor    =  -5.57 kcal/mol
DOCKED: USER        Moving Ligand-Moving Receptor   =  +0.00 kcal/mol
DOCKED: USER    (2) Final Total Internal Energy     =  -5.25 kcal/mol
DOCKED: USER    (3) Torsional Free Energy           =  +2.98 kcal/mol
DOCKED: USER    (4) Unbound System's Energy         =  -5.25 kcal/mol
DOCKED: USER
DOCKED: USER
DOCKED: REMARK  Name = 
DOCKED: REMARK  14 active torsions:
DOCKED: REMARK  status: ('A' for Active; 'I' for Inactive)
DOCKED: REMARK    1  A    between atoms: C_1  and  C_2
DOCKED: REMARK    2  A    between atoms: C_6  and  C_7
DOCKED: REMARK    3  A    between atoms: C_10  and  C_11
DOCKED: REMARK    4  A    between atoms: C_11  and  N_12
DOCKED: REMARK    5  A    between atoms: C_13  and  C_15
DOCKED: REMARK    6  A    between atoms: C_17  and  O_18
DOCKED: REMARK    7  A    between atoms: C_21  and  C_23
DOCKED: REMARK    8  A    between atoms: C_23  and  N_24
DOCKED: REMARK    9  A    between atoms: C_23  and  C_29
DOCKED: REMARK   10  A    between atoms: C_25  and  C_27
DOCKED: REMARK   11  A    between atoms: C_27  and  O_28
DOCKED: REMARK   12  A    between atoms: C_29  and  C_30
DOCKED: REMARK   13  A    between atoms: C_29  and  C_31
DOCKED: REMARK   14  A    between atoms: C_29  and  C_32
DOCKED: REMARK                            x       y       z     vdW  Elec       q    Type
DOCKED: REMARK                         _______ _______ _______ _____ _____    ______ ____
DOCKED: USER                              x       y       z     vdW  Elec       q    Type
DOCKED: USER                           _______ _______ _______ _____ _____    ______ ____
DOCKED: ROOT
DOCKED: ATOM      1  C   UNL     1       9.469  20.769  18.006 -0.10 -0.03    +0.164 C  
DOCKED: ATOM      2  C   UNL     1       9.463  19.246  17.743 -0.20 -0.01    +0.065 C  
DOCKED: ATOM      3  C   UNL     1       8.872  19.098  16.358 -0.28 -0.02    +0.134 C  
DOCKED: ATOM      4  C   UNL     1       9.404  20.325  15.626 -0.28 -0.02    +0.140 C  
DOCKED: ATOM      5  N   UNL     1       9.541  21.363  16.651 -0.11 +0.05    -0.286 N  
DOCKED: ATOM      6  C   UNL     1       9.286  22.675  16.259 -0.23 -0.05    +0.237 C  
DOCKED: ATOM      7  O   UNL     1       8.962  22.896  15.087 -0.32 +0.07    -0.274 OA 
DOCKED: ENDROOT
DOCKED: BRANCH   1   9
DOCKED: ATOM      8  N   UNL     1      11.861  20.836  18.761 -0.06 +0.05    -0.310 N  
DOCKED: ATOM      9  C   UNL     1      10.559  21.186  19.030 -0.05 -0.04    +0.234 C  
DOCKED: ATOM     10  O   UNL     1      10.293  21.813  20.055 -0.01 +0.05    -0.274 OA 
DOCKED: ATOM     11  H   UNL     1      12.050  19.985  18.249 +0.04 -0.02    +0.149 HD 
DOCKED: BRANCH   8  12
DOCKED: ATOM     12  C   UNL     1      12.890  21.261  19.672 -0.10 -0.02    +0.139 C  
DOCKED: BRANCH  12  16
DOCKED: ATOM     13  C   UNL     1      15.865  23.766  17.762 -0.25 +0.00    -0.010 A  
DOCKED: ATOM     14  C   UNL     1      15.453  22.572  17.145 -0.22 -0.00    +0.009 A  
DOCKED: ATOM     15  C   UNL     1      14.513  21.729  17.753 -0.32 -0.00    +0.006 A  
DOCKED: ATOM     16  C   UNL     1      13.991  22.042  19.014 -0.16 +0.00    -0.030 A  
DOCKED: ATOM     17  C   UNL     1      14.412  23.218  19.639 -0.07 -0.00    +0.006 A  
DOCKED: ATOM     18  C   UNL     1      15.322  24.069  19.016 -0.10 -0.00    +0.009 A  
DOCKED: BRANCH  13  24
DOCKED: ATOM     19  C   UNL     1      15.422  26.863  16.758 -0.10 +0.02    +0.067 C  
DOCKED: ATOM     20  C   UNL     1      16.643  26.012  16.673 -0.25 +0.00    +0.053 A  
DOCKED: ATOM     21  N   UNL     1      17.755  26.583  16.075 -0.45 -0.03    -0.252 NA 
DOCKED: ATOM     22  C   UNL     1      18.747  25.726  16.068 -0.18 -0.01    +0.156 A  
DOCKED: ATOM     23  S   UNL     1      18.426  24.200  16.762 -0.33 +0.02    -0.075 S  
DOCKED: ATOM     24  C   UNL     1      16.810  24.702  17.124 -0.27 -0.00    +0.042 A  
DOCKED: ENDBRANCH  13  24
DOCKED: ENDBRANCH  12  16
DOCKED: ENDBRANCH   8  12
DOCKED: ENDBRANCH   1   9
DOCKED: BRANCH   3  25
DOCKED: ATOM     25  O   UNL     1       7.454  19.081  16.464 -0.15 +0.04    -0.390 OA 
DOCKED: ATOM     26  H   UNL     1       7.188  19.680  17.180 +0.07 -0.03    +0.210 HD 
DOCKED: ENDBRANCH   3  25
DOCKED: BRANCH   6  27
DOCKED: ATOM     27  C   UNL     1       9.436  23.849  17.273 -0.18 -0.06    +0.164 C  
DOCKED: BRANCH  27  28
DOCKED: ATOM     28  N   UNL     1       8.708  23.612  18.525 -0.04 +0.12    -0.302 N  
DOCKED: ATOM     29  C   UNL     1       7.385  23.262  18.644 -0.05 -0.10    +0.239 C  
DOCKED: ATOM     30  O   UNL     1       6.553  23.357  17.750 -0.08 +0.13    -0.273 OA 
DOCKED: ATOM     31  H   UNL     1       9.265  23.575  19.374 +0.02 -0.05    +0.150 HD 
DOCKED: BRANCH  29  32
DOCKED: ATOM     32  C   UNL     1       7.021  22.739  20.037 -0.01 -0.08    +0.251 C  
DOCKED: BRANCH  32  33
DOCKED: ATOM     33  O   UNL     1       8.067  22.964  20.977 +0.00 +0.11    -0.386 OA 
DOCKED: ATOM     34  H   UNL     1       8.791  22.364  20.720 +0.01 -0.05    +0.210 HD 
DOCKED: ENDBRANCH  32  33
DOCKED: ENDBRANCH  29  32
DOCKED: ENDBRANCH  27  28
DOCKED: BRANCH  27  35
DOCKED: ATOM     35  C   UNL     1      10.902  24.357  17.513 -0.22 +0.00    -0.011 C  
DOCKED: ATOM     36  C   UNL     1      11.879  23.493  16.686 -0.27 +0.00    +0.013 C  
DOCKED: ATOM     37  C   UNL     1      11.047  25.813  17.002 -0.21 -0.00    +0.013 C  
DOCKED: ATOM     38  C   UNL     1      11.336  24.346  18.989 -0.08 -0.00    +0.013 C  
DOCKED: ENDBRANCH  27  35
DOCKED: ENDBRANCH   6  27
DOCKED: TORSDOF 10
DOCKED: TER
DOCKED: ENDMDL
________________________________________________________________________________


    FINAL DOCKED STATE:
    ________________________


Run:   18 / 50
Time taken for this run:   0.000s

DOCKED: MODEL        18
DOCKED: USER    Run = 18
DOCKED: USER
DOCKED: USER    Estimated Free Energy of Binding    =  -4.29 kcal/mol  [=(1)+(2)+(3)-(4)]
DOCKED: USER
DOCKED: USER    (1) Final Intermolecular Energy     =  -7.27 kcal/mol
DOCKED: USER        vdW + Hbond + desolv Energy     =  -6.88 kcal/mol
DOCKED: USER        Electrostatic Energy            =  -0.40 kcal/mol
DOCKED: USER        Moving Ligand-Fixed Receptor    =  -7.27 kcal/mol
DOCKED: USER        Moving Ligand-Moving Receptor   =  +0.00 kcal/mol
DOCKED: USER    (2) Final Total Internal Energy     =  -3.71 kcal/mol
DOCKED: USER    (3) Torsional Free Energy           =  +2.98 kcal/mol
DOCKED: USER    (4) Unbound System's Energy         =  -3.71 kcal/mol
DOCKED: USER
DOCKED: USER
DOCKED: REMARK  Name = 
DOCKED: REMARK  14 active torsions:
DOCKED: REMARK  status: ('A' for Active; 'I' for Inactive)
DOCKED: REMARK    1  A    between atoms: C_1  and  C_2
DOCKED: REMARK    2  A    between atoms: C_6  and  C_7
DOCKED: REMARK    3  A    between atoms: C_10  and  C_11
DOCKED: REMARK    4  A    between atoms: C_11  and  N_12
DOCKED: REMARK    5  A    between atoms: C_13  and  C_15
DOCKED: REMARK    6  A    between atoms: C_17  and  O_18
DOCKED: REMARK    7  A    between atoms: C_21  and  C_23
DOCKED: REMARK    8  A    between atoms: C_23  and  N_24
DOCKED: REMARK    9  A    between atoms: C_23  and  C_29
DOCKED: REMARK   10  A    between atoms: C_25  and  C_27
DOCKED: REMARK   11  A    between atoms: C_27  and  O_28
DOCKED: REMARK   12  A    between atoms: C_29  and  C_30
DOCKED: REMARK   13  A    between atoms: C_29  and  C_31
DOCKED: REMARK   14  A    between atoms: C_29  and  C_32
DOCKED: REMARK                            x       y       z     vdW  Elec       q    Type
DOCKED: REMARK                         _______ _______ _______ _____ _____    ______ ____
DOCKED: USER                              x       y       z     vdW  Elec       q    Type
DOCKED: USER                           _______ _______ _______ _____ _____    ______ ____
DOCKED: ROOT
DOCKED: ATOM      1  C   UNL     1      14.374  21.967  17.997 -0.26 -0.03    +0.164 C  
DOCKED: ATOM      2  C   UNL     1      14.228  20.593  18.688 -0.10 -0.01    +0.065 C  
DOCKED: ATOM      3  C   UNL     1      14.686  20.828  20.111 -0.15 -0.01    +0.134 C  
DOCKED: ATOM      4  C   UNL     1      14.203  22.245  20.396 -0.06 -0.02    +0.140 C  
DOCKED: ATOM      5  N   UNL     1      14.241  22.939  19.106 -0.05 +0.03    -0.286 N  
DOCKED: ATOM      6  C   UNL     1      14.574  24.291  19.127 -0.05 -0.02    +0.237 C  
DOCKED: ATOM      7  O   UNL     1      14.818  24.830  20.212 -0.01 +0.03    -0.274 OA 
DOCKED: ENDROOT
DOCKED: BRANCH   1   9
DOCKED: ATOM      8  N   UNL     1      12.412  23.063  16.879 -0.12 -0.01    -0.310 N  
DOCKED: ATOM      9  C   UNL     1      13.413  22.124  16.787 -0.25 -0.01    +0.234 C  
DOCKED: ATOM     10  O   UNL     1      13.524  21.445  15.767 -0.32 +0.02    -0.274 OA 
DOCKED: ATOM     11  H   UNL     1      12.010  23.271  17.783 +0.05 -0.01    +0.149 HD 
DOCKED: BRANCH   8  12
DOCKED: ATOM     12  C   UNL     1      11.547  23.259  15.747 -0.23 +0.02    +0.139 C  
DOCKED: BRANCH  12  16
DOCKED: ATOM     13  C   UNL     1       7.545  21.634  16.092 -0.29 +0.00    -0.010 A  
DOCKED: ATOM     14  C   UNL     1       7.737  23.026  16.079 -0.29 -0.00    +0.009 A  
DOCKED: ATOM     15  C   UNL     1       9.023  23.579  15.996 -0.31 -0.00    +0.006 A  
DOCKED: ATOM     16  C   UNL     1      10.150  22.751  15.963 -0.32 +0.00    -0.030 A  
DOCKED: ATOM     17  C   UNL     1       9.964  21.367  15.996 -0.29 -0.00    +0.006 A  
DOCKED: ATOM     18  C   UNL     1       8.684  20.821  16.045 -0.32 -0.00    +0.009 A  
DOCKED: BRANCH  13  24
DOCKED: ATOM     19  C   UNL     1       4.686  22.732  14.900 -0.32 -0.03    +0.067 C  
DOCKED: ATOM     20  C   UNL     1       4.974  21.471  15.641 -0.22 -0.01    +0.053 A  
DOCKED: ATOM     21  N   UNL     1       3.896  20.637  15.887 -0.09 +0.05    -0.252 NA 
DOCKED: ATOM     22  C   UNL     1       4.293  19.574  16.543 -0.10 -0.02    +0.156 A  
DOCKED: ATOM     23  S   UNL     1       5.959  19.498  16.910 -0.21 +0.01    -0.075 S  
DOCKED: ATOM     24  C   UNL     1       6.204  21.020  16.122 -0.17 -0.01    +0.042 A  
DOCKED: ENDBRANCH  13  24
DOCKED: ENDBRANCH  12  16
DOCKED: ENDBRANCH   8  12
DOCKED: ENDBRANCH   1   9
DOCKED: BRANCH   3  25
DOCKED: ATOM     25  O   UNL     1      16.102  20.698  20.163 -0.46 -0.03    -0.390 OA 
DOCKED: ATOM     26  H   UNL     1      16.321  19.826  20.530 +0.05 +0.00    +0.210 HD 
DOCKED: ENDBRANCH   3  25
DOCKED: BRANCH   6  27
DOCKED: ATOM     27  C   UNL     1      14.611  25.118  17.806 -0.11 +0.01    +0.164 C  
DOCKED: BRANCH  27  28
DOCKED: ATOM     28  N   UNL     1      13.426  25.968  17.639 -0.11 -0.05    -0.302 N  
DOCKED: ATOM     29  C   UNL     1      12.221  25.823  18.282 -0.12 -0.02    +0.239 C  
DOCKED: ATOM     30  O   UNL     1      11.866  24.816  18.881 -0.04 +0.05    -0.273 OA 
DOCKED: ATOM     31  H   UNL     1      13.552  26.820  17.096 +0.02 +0.06    +0.150 HD 
DOCKED: BRANCH  29  32
DOCKED: ATOM     32  C   UNL     1      11.323  27.059  18.170 -0.15 -0.09    +0.251 C  
DOCKED: BRANCH  32  33
DOCKED: ATOM     33  O   UNL     1      11.559  27.778  16.964 -0.45 -0.10    -0.386 OA 
DOCKED: ATOM     34  H   UNL     1      10.716  28.215  16.744 -0.40 -0.20    +0.210 HD 
DOCKED: ENDBRANCH  32  33
DOCKED: ENDBRANCH  29  32
DOCKED: ENDBRANCH  27  28
DOCKED: BRANCH  27  35
DOCKED: ATOM     35  C   UNL     1      15.951  25.884  17.520 -0.21 -0.00    -0.011 C  
DOCKED: ATOM     36  C   UNL     1      15.716  26.911  16.391 -0.08 +0.00    +0.013 C  
DOCKED: ATOM     37  C   UNL     1      16.379  26.686  18.776 -0.06 -0.00    +0.013 C  
DOCKED: ATOM     38  C   UNL     1      17.128  24.969  17.141 -0.30 -0.00    +0.013 C  
DOCKED: ENDBRANCH  27  35
DOCKED: ENDBRANCH   6  27
DOCKED: TORSDOF 10
DOCKED: TER
DOCKED: ENDMDL
________________________________________________________________________________


    FINAL DOCKED STATE:
    ________________________


Run:   19 / 50
Time taken for this run:   0.000s

DOCKED: MODEL        19
DOCKED: USER    Run = 19
DOCKED: USER
DOCKED: USER    Estimated Free Energy of Binding    =  -2.86 kcal/mol  [=(1)+(2)+(3)-(4)]
DOCKED: USER
DOCKED: USER    (1) Final Intermolecular Energy     =  -5.85 kcal/mol
DOCKED: USER        vdW + Hbond + desolv Energy     =  -5.41 kcal/mol
DOCKED: USER        Electrostatic Energy            =  -0.43 kcal/mol
DOCKED: USER        Moving Ligand-Fixed Receptor    =  -5.85 kcal/mol
DOCKED: USER        Moving Ligand-Moving Receptor   =  +0.00 kcal/mol
DOCKED: USER    (2) Final Total Internal Energy     =  -4.79 kcal/mol
DOCKED: USER    (3) Torsional Free Energy           =  +2.98 kcal/mol
DOCKED: USER    (4) Unbound System's Energy         =  -4.79 kcal/mol
DOCKED: USER
DOCKED: USER
DOCKED: REMARK  Name = 
DOCKED: REMARK  14 active torsions:
DOCKED: REMARK  status: ('A' for Active; 'I' for Inactive)
DOCKED: REMARK    1  A    between atoms: C_1  and  C_2
DOCKED: REMARK    2  A    between atoms: C_6  and  C_7
DOCKED: REMARK    3  A    between atoms: C_10  and  C_11
DOCKED: REMARK    4  A    between atoms: C_11  and  N_12
DOCKED: REMARK    5  A    between atoms: C_13  and  C_15
DOCKED: REMARK    6  A    between atoms: C_17  and  O_18
DOCKED: REMARK    7  A    between atoms: C_21  and  C_23
DOCKED: REMARK    8  A    between atoms: C_23  and  N_24
DOCKED: REMARK    9  A    between atoms: C_23  and  C_29
DOCKED: REMARK   10  A    between atoms: C_25  and  C_27
DOCKED: REMARK   11  A    between atoms: C_27  and  O_28
DOCKED: REMARK   12  A    between atoms: C_29  and  C_30
DOCKED: REMARK   13  A    between atoms: C_29  and  C_31
DOCKED: REMARK   14  A    between atoms: C_29  and  C_32
DOCKED: REMARK                            x       y       z     vdW  Elec       q    Type
DOCKED: REMARK                         _______ _______ _______ _____ _____    ______ ____
DOCKED: USER                              x       y       z     vdW  Elec       q    Type
DOCKED: USER                           _______ _______ _______ _____ _____    ______ ____
DOCKED: ROOT
DOCKED: ATOM      1  C   UNL     1      12.926  25.719  17.649 -0.13 +0.02    +0.164 C  
DOCKED: ATOM      2  C   UNL     1      12.968  27.249  17.863 -0.17 +0.01    +0.065 C  
DOCKED: ATOM      3  C   UNL     1      11.522  27.687  17.791 -0.18 -0.03    +0.134 C  
DOCKED: ATOM      4  C   UNL     1      10.779  26.520  18.433 -0.15 -0.08    +0.140 C  
DOCKED: ATOM      5  N   UNL     1      11.578  25.331  18.125 -0.09 +0.04    -0.286 N  
DOCKED: ATOM      6  C   UNL     1      10.884  24.144  17.907 -0.11 -0.05    +0.237 C  
DOCKED: ATOM      7  O   UNL     1       9.650  24.150  17.980 -0.09 +0.11    -0.274 OA 
DOCKED: ENDROOT
DOCKED: BRANCH   1   9
DOCKED: ATOM      8  N   UNL     1      13.978  24.429  19.528 -0.01 +0.03    -0.310 N  
DOCKED: ATOM      9  C   UNL     1      14.146  25.001  18.288 -0.10 -0.00    +0.234 C  
DOCKED: ATOM     10  O   UNL     1      15.236  24.927  17.722 -0.13 -0.01    -0.274 OA 
DOCKED: ATOM     11  H   UNL     1      13.329  24.845  20.182 +0.02 -0.02    +0.149 HD 
DOCKED: BRANCH   8  12
DOCKED: ATOM     12  C   UNL     1      15.082  23.713  20.110 -0.04 -0.02    +0.139 C  
DOCKED: BRANCH  12  16
DOCKED: ATOM     13  C   UNL     1      14.788  19.397  20.358 -0.19 +0.00    -0.010 A  
DOCKED: ATOM     14  C   UNL     1      14.663  20.038  19.114 -0.04 -0.00    +0.009 A  
DOCKED: ATOM     15  C   UNL     1      14.727  21.434  19.008 -0.21 -0.00    +0.006 A  
DOCKED: ATOM     16  C   UNL     1      14.878  22.226  20.152 -0.09 +0.00    -0.030 A  
DOCKED: ATOM     17  C   UNL     1      14.983  21.595  21.393 -0.05 -0.00    +0.006 A  
DOCKED: ATOM     18  C   UNL     1      14.953  20.205  21.490 -0.07 -0.00    +0.009 A  
DOCKED: BRANCH  13  24
DOCKED: ATOM     19  C   UNL     1      17.163  17.206  19.767 -0.29 -0.02    +0.067 C  
DOCKED: ATOM     20  C   UNL     1      15.768  16.976  20.237 -0.24 -0.01    +0.053 A  
DOCKED: ATOM     21  N   UNL     1      15.394  15.659  20.446 -0.13 +0.03    -0.252 NA 
DOCKED: ATOM     22  C   UNL     1      14.149  15.607  20.854 -0.10 -0.01    +0.156 A  
DOCKED: ATOM     23  S   UNL     1      13.349  17.107  21.013 -0.16 +0.01    -0.075 S  
DOCKED: ATOM     24  C   UNL     1      14.783  17.929  20.498 -0.18 -0.01    +0.042 A  
DOCKED: ENDBRANCH  13  24
DOCKED: ENDBRANCH  12  16
DOCKED: ENDBRANCH   8  12
DOCKED: ENDBRANCH   1   9
DOCKED: BRANCH   3  25
DOCKED: ATOM     25  O   UNL     1      11.172  27.891  16.428 -0.47 -0.09    -0.390 OA 
DOCKED: ATOM     26  H   UNL     1      10.219  27.734  16.324 -0.26 -0.35    +0.210 HD 
DOCKED: ENDBRANCH   3  25
DOCKED: BRANCH   6  27
DOCKED: ATOM     27  C   UNL     1      11.651  22.821  17.603 -0.14 -0.02    +0.164 C  
DOCKED: BRANCH  27  28
DOCKED: ATOM     28  N   UNL     1      11.631  21.883  18.732 -0.03 +0.05    -0.302 N  
DOCKED: ATOM     29  C   UNL     1      11.566  22.213  20.064 -0.02 -0.04    +0.239 C  
DOCKED: ATOM     30  O   UNL     1      11.786  23.328  20.520 -0.01 +0.05    -0.273 OA 
DOCKED: ATOM     31  H   UNL     1      11.523  20.899  18.502 +0.04 -0.02    +0.150 HD 
DOCKED: BRANCH  29  32
DOCKED: ATOM     32  C   UNL     1      11.199  21.027  20.962 -0.02 -0.04    +0.251 C  
DOCKED: BRANCH  32  33
DOCKED: ATOM     33  O   UNL     1      11.313  19.786  20.274 -0.04 +0.05    -0.386 OA 
DOCKED: ATOM     34  H   UNL     1      10.808  19.140  20.802 +0.02 -0.03    +0.210 HD 
DOCKED: ENDBRANCH  32  33
DOCKED: ENDBRANCH  29  32
DOCKED: ENDBRANCH  27  28
DOCKED: BRANCH  27  35
DOCKED: ATOM     35  C   UNL     1      11.303  22.131  16.237 -0.35 +0.00    -0.011 C  
DOCKED: ATOM     36  C   UNL     1      10.836  23.207  15.231 -0.38 +0.00    +0.013 C  
DOCKED: ATOM     37  C   UNL     1      12.574  21.477  15.637 -0.46 -0.00    +0.013 C  
DOCKED: ATOM     38  C   UNL     1      10.232  21.033  16.344 -0.33 -0.00    +0.013 C  
DOCKED: ENDBRANCH  27  35
DOCKED: ENDBRANCH   6  27
DOCKED: TORSDOF 10
DOCKED: TER
DOCKED: ENDMDL
________________________________________________________________________________


    FINAL DOCKED STATE:
    ________________________


Run:   20 / 50
Time taken for this run:   0.000s

DOCKED: MODEL        20
DOCKED: USER    Run = 20
DOCKED: USER
DOCKED: USER    Estimated Free Energy of Binding    =  -3.16 kcal/mol  [=(1)+(2)+(3)-(4)]
DOCKED: USER
DOCKED: USER    (1) Final Intermolecular Energy     =  -6.14 kcal/mol
DOCKED: USER        vdW + Hbond + desolv Energy     =  -5.75 kcal/mol
DOCKED: USER        Electrostatic Energy            =  -0.39 kcal/mol
DOCKED: USER        Moving Ligand-Fixed Receptor    =  -6.14 kcal/mol
DOCKED: USER        Moving Ligand-Moving Receptor   =  +0.00 kcal/mol
DOCKED: USER    (2) Final Total Internal Energy     =  -4.74 kcal/mol
DOCKED: USER    (3) Torsional Free Energy           =  +2.98 kcal/mol
DOCKED: USER    (4) Unbound System's Energy         =  -4.74 kcal/mol
DOCKED: USER
DOCKED: USER
DOCKED: REMARK  Name = 
DOCKED: REMARK  14 active torsions:
DOCKED: REMARK  status: ('A' for Active; 'I' for Inactive)
DOCKED: REMARK    1  A    between atoms: C_1  and  C_2
DOCKED: REMARK    2  A    between atoms: C_6  and  C_7
DOCKED: REMARK    3  A    between atoms: C_10  and  C_11
DOCKED: REMARK    4  A    between atoms: C_11  and  N_12
DOCKED: REMARK    5  A    between atoms: C_13  and  C_15
DOCKED: REMARK    6  A    between atoms: C_17  and  O_18
DOCKED: REMARK    7  A    between atoms: C_21  and  C_23
DOCKED: REMARK    8  A    between atoms: C_23  and  N_24
DOCKED: REMARK    9  A    between atoms: C_23  and  C_29
DOCKED: REMARK   10  A    between atoms: C_25  and  C_27
DOCKED: REMARK   11  A    between atoms: C_27  and  O_28
DOCKED: REMARK   12  A    between atoms: C_29  and  C_30
DOCKED: REMARK   13  A    between atoms: C_29  and  C_31
DOCKED: REMARK   14  A    between atoms: C_29  and  C_32
DOCKED: REMARK                            x       y       z     vdW  Elec       q    Type
DOCKED: REMARK                         _______ _______ _______ _____ _____    ______ ____
DOCKED: USER                              x       y       z     vdW  Elec       q    Type
DOCKED: USER                           _______ _______ _______ _____ _____    ______ ____
DOCKED: ROOT
DOCKED: ATOM      1  C   UNL     1      12.806  25.975  18.073 -0.14 +0.01    +0.164 C  
DOCKED: ATOM      2  C   UNL     1      14.190  25.508  17.569 -0.09 +0.01    +0.065 C  
DOCKED: ATOM      3  C   UNL     1      15.036  25.394  18.819 -0.08 -0.01    +0.134 C  
DOCKED: ATOM      4  C   UNL     1      14.038  24.906  19.863 -0.03 -0.02    +0.140 C  
DOCKED: ATOM      5  N   UNL     1      12.746  25.471  19.465 -0.01 +0.04    -0.286 N  
DOCKED: ATOM      6  C   UNL     1      11.874  25.835  20.488 -0.01 -0.06    +0.237 C  
DOCKED: ATOM      7  O   UNL     1      12.226  25.668  21.661 +0.00 +0.06    -0.274 OA 
DOCKED: ENDROOT
DOCKED: BRANCH   1   9
DOCKED: ATOM      8  N   UNL     1      11.633  24.262  16.663 -0.12 -0.03    -0.310 N  
DOCKED: ATOM      9  C   UNL     1      11.659  25.562  17.112 -0.10 +0.03    +0.234 C  
DOCKED: ATOM     10  O   UNL     1      10.786  26.352  16.751 -0.60 +0.04    -0.274 OA 
DOCKED: ATOM     11  H   UNL     1      12.503  23.763  16.538 +0.05 +0.03    +0.149 HD 
DOCKED: BRANCH   8  12
DOCKED: ATOM     12  C   UNL     1      10.546  23.849  15.815 -0.33 -0.00    +0.139 C  
DOCKED: BRANCH  12  16
DOCKED: ATOM     13  C   UNL     1       8.865  19.983  16.815 -0.26 +0.00    -0.010 A  
DOCKED: ATOM     14  C   UNL     1      10.162  20.314  17.241 -0.22 -0.00    +0.009 A  
DOCKED: ATOM     15  C   UNL     1      10.742  21.546  16.909 -0.22 -0.00    +0.006 A  
DOCKED: ATOM     16  C   UNL     1      10.049  22.462  16.108 -0.29 +0.00    -0.030 A  
DOCKED: ATOM     17  C   UNL     1       8.767  22.129  15.667 -0.35 -0.00    +0.006 A  
DOCKED: ATOM     18  C   UNL     1       8.182  20.917  16.027 -0.31 -0.00    +0.009 A  
DOCKED: BRANCH  13  24
DOCKED: ATOM     19  C   UNL     1      10.009  17.430  18.538 -0.21 -0.01    +0.067 C  
DOCKED: ATOM     20  C   UNL     1       8.672  17.614  17.907 -0.16 -0.00    +0.053 A  
DOCKED: ATOM     21  N   UNL     1       7.774  16.568  18.040 -0.11 +0.00    -0.252 NA 
DOCKED: ATOM     22  C   UNL     1       6.648  16.866  17.439 -0.16 -0.00    +0.156 A  
DOCKED: ATOM     23  S   UNL     1       6.583  18.394  16.682 -0.31 +0.00    -0.075 S  
DOCKED: ATOM     24  C   UNL     1       8.205  18.720  17.194 -0.21 -0.00    +0.042 A  
DOCKED: ENDBRANCH  13  24
DOCKED: ENDBRANCH  12  16
DOCKED: ENDBRANCH   8  12
DOCKED: ENDBRANCH   1   9
DOCKED: BRANCH   3  25
DOCKED: ATOM     25  O   UNL     1      15.581  26.672  19.121 -0.00 +0.03    -0.390 OA 
DOCKED: ATOM     26  H   UNL     1      15.033  27.091  19.804 +0.02 -0.02    +0.210 HD 
DOCKED: ENDBRANCH   3  25
DOCKED: BRANCH   6  27
DOCKED: ATOM     27  C   UNL     1      10.466  26.416  20.159 -0.05 -0.07    +0.164 C  
DOCKED: BRANCH  27  28
DOCKED: ATOM     28  N   UNL     1      10.520  27.517  19.190 -0.06 +0.22    -0.302 N  
DOCKED: ATOM     29  C   UNL     1      10.824  28.828  19.463 -0.06 -0.14    +0.239 C  
DOCKED: ATOM     30  O   UNL     1      10.831  29.326  20.582 -0.02 +0.11    -0.273 OA 
DOCKED: ATOM     31  H   UNL     1      10.454  27.261  18.208 -0.08 -0.15    +0.150 HD 
DOCKED: BRANCH  29  32
DOCKED: ATOM     32  C   UNL     1      11.149  29.647  18.209 -0.11 -0.13    +0.251 C  
DOCKED: BRANCH  32  33
DOCKED: ATOM     33  O   UNL     1      11.340  28.816  17.069 -0.56 +0.04    -0.386 OA 
DOCKED: ATOM     34  H   UNL     1      10.456  28.481  16.831 -0.41 -0.35    +0.210 HD 
DOCKED: ENDBRANCH  32  33
DOCKED: ENDBRANCH  29  32
DOCKED: ENDBRANCH  27  28
DOCKED: BRANCH  27  35
DOCKED: ATOM     35  C   UNL     1       9.358  25.359  19.813 -0.08 +0.01    -0.011 C  
DOCKED: ATOM     36  C   UNL     1       8.428  25.183  21.033 -0.03 -0.01    +0.013 C  
DOCKED: ATOM     37  C   UNL     1       8.478  25.879  18.648 -0.00 -0.01    +0.013 C  
DOCKED: ATOM     38  C   UNL     1       9.910  23.987  19.390 -0.06 -0.00    +0.013 C  
DOCKED: ENDBRANCH  27  35
DOCKED: ENDBRANCH   6  27
DOCKED: TORSDOF 10
DOCKED: TER
DOCKED: ENDMDL
________________________________________________________________________________


    FINAL DOCKED STATE:
    ________________________


Run:   21 / 50
Time taken for this run:   0.000s

DOCKED: MODEL        21
DOCKED: USER    Run = 21
DOCKED: USER
DOCKED: USER    Estimated Free Energy of Binding    =  -4.20 kcal/mol  [=(1)+(2)+(3)-(4)]
DOCKED: USER
DOCKED: USER    (1) Final Intermolecular Energy     =  -7.18 kcal/mol
DOCKED: USER        vdW + Hbond + desolv Energy     =  -6.73 kcal/mol
DOCKED: USER        Electrostatic Energy            =  -0.46 kcal/mol
DOCKED: USER        Moving Ligand-Fixed Receptor    =  -7.18 kcal/mol
DOCKED: USER        Moving Ligand-Moving Receptor   =  +0.00 kcal/mol
DOCKED: USER    (2) Final Total Internal Energy     =  -3.78 kcal/mol
DOCKED: USER    (3) Torsional Free Energy           =  +2.98 kcal/mol
DOCKED: USER    (4) Unbound System's Energy         =  -3.78 kcal/mol
DOCKED: USER
DOCKED: USER
DOCKED: REMARK  Name = 
DOCKED: REMARK  14 active torsions:
DOCKED: REMARK  status: ('A' for Active; 'I' for Inactive)
DOCKED: REMARK    1  A    between atoms: C_1  and  C_2
DOCKED: REMARK    2  A    between atoms: C_6  and  C_7
DOCKED: REMARK    3  A    between atoms: C_10  and  C_11
DOCKED: REMARK    4  A    between atoms: C_11  and  N_12
DOCKED: REMARK    5  A    between atoms: C_13  and  C_15
DOCKED: REMARK    6  A    between atoms: C_17  and  O_18
DOCKED: REMARK    7  A    between atoms: C_21  and  C_23
DOCKED: REMARK    8  A    between atoms: C_23  and  N_24
DOCKED: REMARK    9  A    between atoms: C_23  and  C_29
DOCKED: REMARK   10  A    between atoms: C_25  and  C_27
DOCKED: REMARK   11  A    between atoms: C_27  and  O_28
DOCKED: REMARK   12  A    between atoms: C_29  and  C_30
DOCKED: REMARK   13  A    between atoms: C_29  and  C_31
DOCKED: REMARK   14  A    between atoms: C_29  and  C_32
DOCKED: REMARK                            x       y       z     vdW  Elec       q    Type
DOCKED: REMARK                         _______ _______ _______ _____ _____    ______ ____
DOCKED: USER                              x       y       z     vdW  Elec       q    Type
DOCKED: USER                           _______ _______ _______ _____ _____    ______ ____
DOCKED: ROOT
DOCKED: ATOM      1  C   UNL     1      12.824  22.622  17.364 -0.21 -0.01    +0.164 C  
DOCKED: ATOM      2  C   UNL     1      13.050  21.343  16.526 -0.32 -0.01    +0.065 C  
DOCKED: ATOM      3  C   UNL     1      11.845  21.262  15.616 -0.37 -0.01    +0.134 C  
DOCKED: ATOM      4  C   UNL     1      11.551  22.725  15.306 -0.23 +0.02    +0.140 C  
DOCKED: ATOM      5  N   UNL     1      11.974  23.469  16.495 -0.14 -0.02    -0.286 N  
DOCKED: ATOM      6  C   UNL     1      11.227  24.594  16.835 -0.19 -0.00    +0.237 C  
DOCKED: ATOM      7  O   UNL     1      10.260  24.904  16.131 -0.24 +0.04    -0.274 OA 
DOCKED: ENDROOT
DOCKED: BRANCH   1   9
DOCKED: ATOM      8  N   UNL     1      15.272  23.102  17.087 -0.14 +0.02    -0.310 N  
DOCKED: ATOM      9  C   UNL     1      14.155  23.233  17.879 -0.17 -0.01    +0.234 C  
DOCKED: ATOM     10  O   UNL     1      14.234  23.822  18.957 -0.05 +0.02    -0.274 OA 
DOCKED: ATOM     11  H   UNL     1      15.368  22.287  16.497 -0.14 -0.03    +0.149 HD 
DOCKED: BRANCH   8  12
DOCKED: ATOM     12  C   UNL     1      16.501  23.709  17.524 -0.28 -0.01    +0.139 C  
DOCKED: BRANCH  12  16
DOCKED: ATOM     13  C   UNL     1      16.489  27.907  16.453 -0.21 -0.00    -0.010 A  
DOCKED: ATOM     14  C   UNL     1      17.468  27.051  15.922 -0.24 +0.00    +0.009 A  
DOCKED: ATOM     15  C   UNL     1      17.512  25.695  16.272 -0.31 +0.00    +0.006 A  
DOCKED: ATOM     16  C   UNL     1      16.600  25.171  17.195 -0.24 -0.00    -0.030 A  
DOCKED: ATOM     17  C   UNL     1      15.636  26.022  17.741 -0.16 +0.00    +0.006 A  
DOCKED: ATOM     18  C   UNL     1      15.575  27.362  17.364 -0.16 +0.00    +0.009 A  
DOCKED: BRANCH  13  24
DOCKED: ATOM     19  C   UNL     1      18.015  29.570  14.066 -0.25 -0.03    +0.067 C  
DOCKED: ATOM     20  C   UNL     1      17.027  30.059  15.068 -0.19 -0.01    +0.053 A  
DOCKED: ATOM     21  N   UNL     1      16.704  31.405  15.014 -0.13 +0.11    -0.252 NA 
DOCKED: ATOM     22  C   UNL     1      15.831  31.693  15.949 -0.11 -0.02    +0.156 A  
DOCKED: ATOM     23  S   UNL     1      15.343  30.396  16.945 -0.13 -0.01    -0.075 S  
DOCKED: ATOM     24  C   UNL     1      16.379  29.325  16.063 -0.15 +0.00    +0.042 A  
DOCKED: ENDBRANCH  13  24
DOCKED: ENDBRANCH  12  16
DOCKED: ENDBRANCH   8  12
DOCKED: ENDBRANCH   1   9
DOCKED: BRANCH   3  25
DOCKED: ATOM     25  O   UNL     1      10.787  20.614  16.312 -0.15 +0.05    -0.390 OA 
DOCKED: ATOM     26  H   UNL     1       9.976  21.136  16.203 +0.10 -0.03    +0.210 HD 
DOCKED: ENDBRANCH   3  25
DOCKED: BRANCH   6  27
DOCKED: ATOM     27  C   UNL     1      11.622  25.466  18.065 -0.16 -0.02    +0.164 C  
DOCKED: BRANCH  27  28
DOCKED: ATOM     28  N   UNL     1      11.364  26.895  17.853 -0.15 +0.09    -0.302 N  
DOCKED: ATOM     29  C   UNL     1      12.102  27.939  18.353 -0.13 -0.04    +0.239 C  
DOCKED: ATOM     30  O   UNL     1      12.917  27.847  19.262 -0.04 +0.04    -0.273 OA 
DOCKED: ATOM     31  H   UNL     1      10.651  27.130  17.166 -0.17 -0.12    +0.150 HD 
DOCKED: BRANCH  29  32
DOCKED: ATOM     32  C   UNL     1      11.800  29.276  17.667 -0.07 -0.01    +0.251 C  
DOCKED: BRANCH  32  33
DOCKED: ATOM     33  O   UNL     1      11.167  29.092  16.405 -0.60 -0.06    -0.386 OA 
DOCKED: ATOM     34  H   UNL     1      10.217  29.253  16.556 -0.39 -0.38    +0.210 HD 
DOCKED: ENDBRANCH  32  33
DOCKED: ENDBRANCH  29  32
DOCKED: ENDBRANCH  27  28
DOCKED: BRANCH  27  35
DOCKED: ATOM     35  C   UNL     1      11.098  24.956  19.455 -0.07 +0.00    -0.011 C  
DOCKED: ATOM     36  C   UNL     1      12.214  25.127  20.510 -0.02 -0.00    +0.013 C  
DOCKED: ATOM     37  C   UNL     1       9.903  25.827  19.920 -0.08 -0.01    +0.013 C  
DOCKED: ATOM     38  C   UNL     1      10.622  23.494  19.448 -0.05 -0.00    +0.013 C  
DOCKED: ENDBRANCH  27  35
DOCKED: ENDBRANCH   6  27
DOCKED: TORSDOF 10
DOCKED: TER
DOCKED: ENDMDL
________________________________________________________________________________


    FINAL DOCKED STATE:
    ________________________


Run:   22 / 50
Time taken for this run:   0.000s

DOCKED: MODEL        22
DOCKED: USER    Run = 22
DOCKED: USER
DOCKED: USER    Estimated Free Energy of Binding    =  -4.49 kcal/mol  [=(1)+(2)+(3)-(4)]
DOCKED: USER
DOCKED: USER    (1) Final Intermolecular Energy     =  -7.47 kcal/mol
DOCKED: USER        vdW + Hbond + desolv Energy     =  -7.27 kcal/mol
DOCKED: USER        Electrostatic Energy            =  -0.20 kcal/mol
DOCKED: USER        Moving Ligand-Fixed Receptor    =  -7.47 kcal/mol
DOCKED: USER        Moving Ligand-Moving Receptor   =  +0.00 kcal/mol
DOCKED: USER    (2) Final Total Internal Energy     =  -3.36 kcal/mol
DOCKED: USER    (3) Torsional Free Energy           =  +2.98 kcal/mol
DOCKED: USER    (4) Unbound System's Energy         =  -3.36 kcal/mol
DOCKED: USER
DOCKED: USER
DOCKED: REMARK  Name = 
DOCKED: REMARK  14 active torsions:
DOCKED: REMARK  status: ('A' for Active; 'I' for Inactive)
DOCKED: REMARK    1  A    between atoms: C_1  and  C_2
DOCKED: REMARK    2  A    between atoms: C_6  and  C_7
DOCKED: REMARK    3  A    between atoms: C_10  and  C_11
DOCKED: REMARK    4  A    between atoms: C_11  and  N_12
DOCKED: REMARK    5  A    between atoms: C_13  and  C_15
DOCKED: REMARK    6  A    between atoms: C_17  and  O_18
DOCKED: REMARK    7  A    between atoms: C_21  and  C_23
DOCKED: REMARK    8  A    between atoms: C_23  and  N_24
DOCKED: REMARK    9  A    between atoms: C_23  and  C_29
DOCKED: REMARK   10  A    between atoms: C_25  and  C_27
DOCKED: REMARK   11  A    between atoms: C_27  and  O_28
DOCKED: REMARK   12  A    between atoms: C_29  and  C_30
DOCKED: REMARK   13  A    between atoms: C_29  and  C_31
DOCKED: REMARK   14  A    between atoms: C_29  and  C_32
DOCKED: REMARK                            x       y       z     vdW  Elec       q    Type
DOCKED: REMARK                         _______ _______ _______ _____ _____    ______ ____
DOCKED: USER                              x       y       z     vdW  Elec       q    Type
DOCKED: USER                           _______ _______ _______ _____ _____    ______ ____
DOCKED: ROOT
DOCKED: ATOM      1  C   UNL     1      13.007  22.277  17.232 -0.25 -0.01    +0.164 C  
DOCKED: ATOM      2  C   UNL     1      13.544  21.338  16.128 -0.27 -0.01    +0.065 C  
DOCKED: ATOM      3  C   UNL     1      12.352  21.071  15.236 -0.41 -0.01    +0.134 C  
DOCKED: ATOM      4  C   UNL     1      11.600  22.397  15.263 -0.20 +0.02    +0.140 C  
DOCKED: ATOM      5  N   UNL     1      11.871  22.973  16.583 -0.15 -0.00    -0.286 N  
DOCKED: ATOM      6  C   UNL     1      10.846  23.708  17.173 -0.16 -0.03    +0.237 C  
DOCKED: ATOM      7  O   UNL     1       9.777  23.835  16.568 -0.20 +0.07    -0.274 OA 
DOCKED: ENDROOT
DOCKED: BRANCH   1   9
DOCKED: ATOM      8  N   UNL     1      15.431  22.835  17.564 -0.19 +0.04    -0.310 N  
DOCKED: ATOM      9  C   UNL     1      14.125  23.156  17.855 -0.17 -0.01    +0.234 C  
DOCKED: ATOM     10  O   UNL     1      13.878  24.115  18.584 -0.07 +0.02    -0.274 OA 
DOCKED: ATOM     11  H   UNL     1      15.679  21.870  17.400 -0.29 -0.06    +0.149 HD 
DOCKED: BRANCH   8  12
DOCKED: ATOM     12  C   UNL     1      16.477  23.672  18.089 -0.22 -0.02    +0.139 C  
DOCKED: BRANCH  12  16
DOCKED: ATOM     13  C   UNL     1      17.279  27.416  16.061 -0.26 -0.00    -0.010 A  
DOCKED: ATOM     14  C   UNL     1      16.078  27.247  16.772 -0.21 +0.00    +0.009 A  
DOCKED: ATOM     15  C   UNL     1      15.780  26.037  17.414 -0.18 +0.00    +0.006 A  
DOCKED: ATOM     16  C   UNL     1      16.662  24.953  17.328 -0.23 +0.00    -0.030 A  
DOCKED: ATOM     17  C   UNL     1      17.847  25.110  16.607 -0.29 -0.00    +0.006 A  
DOCKED: ATOM     18  C   UNL     1      18.154  26.325  15.998 -0.27 +0.00    +0.009 A  
DOCKED: BRANCH  13  24
DOCKED: ATOM     19  C   UNL     1      20.157  28.411  14.828 -0.13 -0.01    +0.067 C  
DOCKED: ATOM     20  C   UNL     1      18.864  29.147  14.908 -0.15 -0.01    +0.053 A  
DOCKED: ATOM     21  N   UNL     1      18.855  30.440  14.413 -0.07 +0.10    -0.252 NA 
DOCKED: ATOM     22  C   UNL     1      17.661  30.963  14.549 -0.12 -0.09    +0.156 A  
DOCKED: ATOM     23  S   UNL     1      16.481  29.962  15.270 -0.26 +0.00    -0.075 S  
DOCKED: ATOM     24  C   UNL     1      17.648  28.693  15.422 -0.21 -0.00    +0.042 A  
DOCKED: ENDBRANCH  13  24
DOCKED: ENDBRANCH  12  16
DOCKED: ENDBRANCH   8  12
DOCKED: ENDBRANCH   1   9
DOCKED: BRANCH   3  25
DOCKED: ATOM     25  O   UNL     1      11.603  19.992  15.783 -0.21 +0.06    -0.390 OA 
DOCKED: ATOM     26  H   UNL     1      11.021  19.636  15.093 +0.12 -0.03    +0.210 HD 
DOCKED: ENDBRANCH   3  25
DOCKED: BRANCH   6  27
DOCKED: ATOM     27  C   UNL     1      11.054  24.384  18.562 -0.08 -0.04    +0.164 C  
DOCKED: BRANCH  27  28
DOCKED: ATOM     28  N   UNL     1      11.795  25.647  18.471 -0.07 +0.05    -0.302 N  
DOCKED: ATOM     29  C   UNL     1      11.522  26.693  17.624 -0.16 -0.02    +0.239 C  
DOCKED: ATOM     30  O   UNL     1      10.795  26.625  16.642 -0.60 +0.03    -0.273 OA 
DOCKED: ATOM     31  H   UNL     1      12.494  25.816  19.191 +0.02 -0.02    +0.150 HD 
DOCKED: BRANCH  29  32
DOCKED: ATOM     32  C   UNL     1      12.237  27.991  18.016 -0.14 -0.00    +0.251 C  
DOCKED: BRANCH  32  33
DOCKED: ATOM     33  O   UNL     1      11.671  29.124  17.365 -0.53 -0.02    -0.386 OA 
DOCKED: ATOM     34  H   UNL     1      10.819  28.825  16.998 -0.40 -0.18    +0.210 HD 
DOCKED: ENDBRANCH  32  33
DOCKED: ENDBRANCH  29  32
DOCKED: ENDBRANCH  27  28
DOCKED: BRANCH  27  35
DOCKED: ATOM     35  C   UNL     1       9.772  24.498  19.462 -0.07 +0.00    -0.011 C  
DOCKED: ATOM     36  C   UNL     1       9.199  23.085  19.707 -0.04 -0.00    +0.013 C  
DOCKED: ATOM     37  C   UNL     1      10.150  25.077  20.849 -0.02 -0.00    +0.013 C  
DOCKED: ATOM     38  C   UNL     1       8.672  25.400  18.875 -0.13 -0.01    +0.013 C  
DOCKED: ENDBRANCH  27  35
DOCKED: ENDBRANCH   6  27
DOCKED: TORSDOF 10
DOCKED: TER
DOCKED: ENDMDL
________________________________________________________________________________


    FINAL DOCKED STATE:
    ________________________


Run:   23 / 50
Time taken for this run:   0.000s

DOCKED: MODEL        23
DOCKED: USER    Run = 23
DOCKED: USER
DOCKED: USER    Estimated Free Energy of Binding    =  -3.36 kcal/mol  [=(1)+(2)+(3)-(4)]
DOCKED: USER
DOCKED: USER    (1) Final Intermolecular Energy     =  -6.35 kcal/mol
DOCKED: USER        vdW + Hbond + desolv Energy     =  -6.12 kcal/mol
DOCKED: USER        Electrostatic Energy            =  -0.22 kcal/mol
DOCKED: USER        Moving Ligand-Fixed Receptor    =  -6.35 kcal/mol
DOCKED: USER        Moving Ligand-Moving Receptor   =  +0.00 kcal/mol
DOCKED: USER    (2) Final Total Internal Energy     =  -4.72 kcal/mol
DOCKED: USER    (3) Torsional Free Energy           =  +2.98 kcal/mol
DOCKED: USER    (4) Unbound System's Energy         =  -4.72 kcal/mol
DOCKED: USER
DOCKED: USER
DOCKED: REMARK  Name = 
DOCKED: REMARK  14 active torsions:
DOCKED: REMARK  status: ('A' for Active; 'I' for Inactive)
DOCKED: REMARK    1  A    between atoms: C_1  and  C_2
DOCKED: REMARK    2  A    between atoms: C_6  and  C_7
DOCKED: REMARK    3  A    between atoms: C_10  and  C_11
DOCKED: REMARK    4  A    between atoms: C_11  and  N_12
DOCKED: REMARK    5  A    between atoms: C_13  and  C_15
DOCKED: REMARK    6  A    between atoms: C_17  and  O_18
DOCKED: REMARK    7  A    between atoms: C_21  and  C_23
DOCKED: REMARK    8  A    between atoms: C_23  and  N_24
DOCKED: REMARK    9  A    between atoms: C_23  and  C_29
DOCKED: REMARK   10  A    between atoms: C_25  and  C_27
DOCKED: REMARK   11  A    between atoms: C_27  and  O_28
DOCKED: REMARK   12  A    between atoms: C_29  and  C_30
DOCKED: REMARK   13  A    between atoms: C_29  and  C_31
DOCKED: REMARK   14  A    between atoms: C_29  and  C_32
DOCKED: REMARK                            x       y       z     vdW  Elec       q    Type
DOCKED: REMARK                         _______ _______ _______ _____ _____    ______ ____
DOCKED: USER                              x       y       z     vdW  Elec       q    Type
DOCKED: USER                           _______ _______ _______ _____ _____    ______ ____
DOCKED: ROOT
DOCKED: ATOM      1  C   UNL     1      10.012  21.922  17.908 -0.09 -0.03    +0.164 C  
DOCKED: ATOM      2  C   UNL     1       8.855  20.922  17.693 -0.13 -0.01    +0.065 C  
DOCKED: ATOM      3  C   UNL     1       8.635  20.904  16.196 -0.28 -0.02    +0.134 C  
DOCKED: ATOM      4  C   UNL     1      10.045  21.070  15.641 -0.13 -0.01    +0.140 C  
DOCKED: ATOM      5  N   UNL     1      10.763  21.876  16.632 -0.12 +0.03    -0.286 N  
DOCKED: ATOM      6  C   UNL     1      11.716  22.768  16.147 -0.23 +0.01    +0.237 C  
DOCKED: ATOM      7  O   UNL     1      11.906  22.837  14.928 -0.27 -0.08    -0.274 OA 
DOCKED: ENDROOT
DOCKED: BRANCH   1   9
DOCKED: ATOM      8  N   UNL     1      11.365  20.393  19.367 -0.05 +0.05    -0.310 N  
DOCKED: ATOM      9  C   UNL     1      10.802  21.638  19.214 -0.04 -0.04    +0.234 C  
DOCKED: ATOM     10  O   UNL     1      10.939  22.485  20.097 -0.01 +0.05    -0.274 OA 
DOCKED: ATOM     11  H   UNL     1      10.913  19.590  18.951 +0.03 -0.02    +0.149 HD 
DOCKED: BRANCH   8  12
DOCKED: ATOM     12  C   UNL     1      12.145  20.131  20.547 -0.08 -0.02    +0.139 C  
DOCKED: BRANCH  12  16
DOCKED: ATOM     13  C   UNL     1      15.604  17.554  20.128 -0.27 +0.00    -0.010 A  
DOCKED: ATOM     14  C   UNL     1      15.697  18.913  19.785 -0.26 -0.00    +0.009 A  
DOCKED: ATOM     15  C   UNL     1      14.587  19.764  19.885 -0.20 -0.00    +0.006 A  
DOCKED: ATOM     16  C   UNL     1      13.345  19.264  20.293 -0.12 +0.00    -0.030 A  
DOCKED: ATOM     17  C   UNL     1      13.243  17.909  20.617 -0.09 -0.00    +0.006 A  
DOCKED: ATOM     18  C   UNL     1      14.357  17.075  20.548 -0.14 -0.00    +0.009 A  
DOCKED: BRANCH  13  24
DOCKED: ATOM     19  C   UNL     1      18.684  18.008  21.176 -0.14 -0.02    +0.067 C  
DOCKED: ATOM     20  C   UNL     1      18.084  16.819  20.509 -0.15 -0.02    +0.053 A  
DOCKED: ATOM     21  N   UNL     1      18.930  15.747  20.273 -0.11 +0.08    -0.252 NA 
DOCKED: ATOM     22  C   UNL     1      18.272  14.780  19.683 -0.19 -0.04    +0.156 A  
DOCKED: ATOM     23  S   UNL     1      16.621  15.076  19.371 -0.35 +0.01    -0.075 S  
DOCKED: ATOM     24  C   UNL     1      16.764  16.645  20.089 -0.28 -0.01    +0.042 A  
DOCKED: ENDBRANCH  13  24
DOCKED: ENDBRANCH  12  16
DOCKED: ENDBRANCH   8  12
DOCKED: ENDBRANCH   1   9
DOCKED: BRANCH   3  25
DOCKED: ATOM     25  O   UNL     1       7.767  21.976  15.848 -0.20 +0.13    -0.390 OA 
DOCKED: ATOM     26  H   UNL     1       7.806  22.109  14.887 -0.35 -0.10    +0.210 HD 
DOCKED: ENDBRANCH   3  25
DOCKED: BRANCH   6  27
DOCKED: ATOM     27  C   UNL     1      12.551  23.646  17.128 -0.15 +0.01    +0.164 C  
DOCKED: BRANCH  27  28
DOCKED: ATOM     28  N   UNL     1      11.712  24.405  18.063 -0.06 +0.04    -0.302 N  
DOCKED: ATOM     29  C   UNL     1      11.002  25.546  17.779 -0.16 -0.06    +0.239 C  
DOCKED: ATOM     30  O   UNL     1      11.174  26.248  16.791 -0.55 -0.04    -0.273 OA 
DOCKED: ATOM     31  H   UNL     1      11.535  23.973  18.967 +0.03 -0.03    +0.150 HD 
DOCKED: BRANCH  29  32
DOCKED: ATOM     32  C   UNL     1       9.955  25.887  18.844 -0.09 -0.16    +0.251 C  
DOCKED: BRANCH  32  33
DOCKED: ATOM     33  O   UNL     1       9.641  24.762  19.658 -0.02 +0.16    -0.386 OA 
DOCKED: ATOM     34  H   UNL     1      10.491  24.446  20.017 +0.02 -0.06    +0.210 HD 
DOCKED: ENDBRANCH  32  33
DOCKED: ENDBRANCH  29  32
DOCKED: ENDBRANCH  27  28
DOCKED: BRANCH  27  35
DOCKED: ATOM     35  C   UNL     1      13.747  22.920  17.841 -0.25 +0.00    -0.011 C  
DOCKED: ATOM     36  C   UNL     1      13.807  21.453  17.359 -0.31 -0.00    +0.013 C  
DOCKED: ATOM     37  C   UNL     1      15.087  23.583  17.433 -0.23 -0.00    +0.013 C  
DOCKED: ATOM     38  C   UNL     1      13.672  22.949  19.377 -0.10 -0.00    +0.013 C  
DOCKED: ENDBRANCH  27  35
DOCKED: ENDBRANCH   6  27
DOCKED: TORSDOF 10
DOCKED: TER
DOCKED: ENDMDL
________________________________________________________________________________


    FINAL DOCKED STATE:
    ________________________


Run:   24 / 50
Time taken for this run:   0.000s

DOCKED: MODEL        24
DOCKED: USER    Run = 24
DOCKED: USER
DOCKED: USER    Estimated Free Energy of Binding    =  -4.14 kcal/mol  [=(1)+(2)+(3)-(4)]
DOCKED: USER
DOCKED: USER    (1) Final Intermolecular Energy     =  -7.13 kcal/mol
DOCKED: USER        vdW + Hbond + desolv Energy     =  -6.81 kcal/mol
DOCKED: USER        Electrostatic Energy            =  -0.31 kcal/mol
DOCKED: USER        Moving Ligand-Fixed Receptor    =  -7.13 kcal/mol
DOCKED: USER        Moving Ligand-Moving Receptor   =  +0.00 kcal/mol
DOCKED: USER    (2) Final Total Internal Energy     =  -3.48 kcal/mol
DOCKED: USER    (3) Torsional Free Energy           =  +2.98 kcal/mol
DOCKED: USER    (4) Unbound System's Energy         =  -3.48 kcal/mol
DOCKED: USER
DOCKED: USER
DOCKED: REMARK  Name = 
DOCKED: REMARK  14 active torsions:
DOCKED: REMARK  status: ('A' for Active; 'I' for Inactive)
DOCKED: REMARK    1  A    between atoms: C_1  and  C_2
DOCKED: REMARK    2  A    between atoms: C_6  and  C_7
DOCKED: REMARK    3  A    between atoms: C_10  and  C_11
DOCKED: REMARK    4  A    between atoms: C_11  and  N_12
DOCKED: REMARK    5  A    between atoms: C_13  and  C_15
DOCKED: REMARK    6  A    between atoms: C_17  and  O_18
DOCKED: REMARK    7  A    between atoms: C_21  and  C_23
DOCKED: REMARK    8  A    between atoms: C_23  and  N_24
DOCKED: REMARK    9  A    between atoms: C_23  and  C_29
DOCKED: REMARK   10  A    between atoms: C_25  and  C_27
DOCKED: REMARK   11  A    between atoms: C_27  and  O_28
DOCKED: REMARK   12  A    between atoms: C_29  and  C_30
DOCKED: REMARK   13  A    between atoms: C_29  and  C_31
DOCKED: REMARK   14  A    between atoms: C_29  and  C_32
DOCKED: REMARK                            x       y       z     vdW  Elec       q    Type
DOCKED: REMARK                         _______ _______ _______ _____ _____    ______ ____
DOCKED: USER                              x       y       z     vdW  Elec       q    Type
DOCKED: USER                           _______ _______ _______ _____ _____    ______ ____
DOCKED: ROOT
DOCKED: ATOM      1  C   UNL     1      13.049  26.444  17.694 -0.12 +0.03    +0.164 C  
DOCKED: ATOM      2  C   UNL     1      13.157  27.929  18.107 -0.15 +0.01    +0.065 C  
DOCKED: ATOM      3  C   UNL     1      11.730  28.431  18.114 -0.17 -0.03    +0.134 C  
DOCKED: ATOM      4  C   UNL     1      10.944  27.221  18.605 -0.13 -0.08    +0.140 C  
DOCKED: ATOM      5  N   UNL     1      11.689  26.052  18.132 -0.12 +0.04    -0.286 N  
DOCKED: ATOM      6  C   UNL     1      10.944  24.933  17.769 -0.15 -0.05    +0.237 C  
DOCKED: ATOM      7  O   UNL     1       9.712  24.980  17.860 -0.14 +0.15    -0.274 OA 
DOCKED: ENDROOT
DOCKED: BRANCH   1   9
DOCKED: ATOM      8  N   UNL     1      14.576  24.461  17.518 -0.06 -0.02    -0.310 N  
DOCKED: ATOM      9  C   UNL     1      14.242  25.598  18.215 -0.10 +0.01    +0.234 C  
DOCKED: ATOM     10  O   UNL     1      14.886  25.916  19.214 -0.03 +0.02    -0.274 OA 
DOCKED: ATOM     11  H   UNL     1      13.853  23.941  17.041 +0.05 +0.02    +0.149 HD 
DOCKED: BRANCH   8  12
DOCKED: ATOM     12  C   UNL     1      15.713  23.695  17.956 -0.22 -0.01    +0.139 C  
DOCKED: BRANCH  12  16
DOCKED: ATOM     13  C   UNL     1      19.410  25.235  16.302 -0.21 +0.00    -0.010 A  
DOCKED: ATOM     14  C   UNL     1      19.441  24.158  17.204 -0.23 -0.00    +0.009 A  
DOCKED: ATOM     15  C   UNL     1      18.263  23.657  17.775 -0.15 -0.00    +0.006 A  
DOCKED: ATOM     16  C   UNL     1      17.028  24.249  17.487 -0.27 +0.00    -0.030 A  
DOCKED: ATOM     17  C   UNL     1      16.994  25.332  16.606 -0.29 +0.00    +0.006 A  
DOCKED: ATOM     18  C   UNL     1      18.163  25.805  16.015 -0.28 +0.00    +0.009 A  
DOCKED: BRANCH  13  24
DOCKED: ATOM     19  C   UNL     1      21.899  23.619  14.893 -0.33 -0.02    +0.067 C  
DOCKED: ATOM     20  C   UNL     1      21.701  25.087  15.051 -0.22 -0.01    +0.053 A  
DOCKED: ATOM     21  N   UNL     1      22.704  25.905  14.555 -0.10 +0.06    -0.252 NA 
DOCKED: ATOM     22  C   UNL     1      22.400  27.162  14.764 -0.08 -0.03    +0.156 A  
DOCKED: ATOM     23  S   UNL     1      20.916  27.454  15.557 -0.17 +0.01    -0.075 S  
DOCKED: ATOM     24  C   UNL     1      20.623  25.749  15.639 -0.19 -0.01    +0.042 A  
DOCKED: ENDBRANCH  13  24
DOCKED: ENDBRANCH  12  16
DOCKED: ENDBRANCH   8  12
DOCKED: ENDBRANCH   1   9
DOCKED: BRANCH   3  25
DOCKED: ATOM     25  O   UNL     1      11.378  28.828  16.794 -0.54 -0.06    -0.390 OA 
DOCKED: ATOM     26  H   UNL     1      10.435  28.645  16.655 -0.41 -0.34    +0.210 HD 
DOCKED: ENDBRANCH   3  25
DOCKED: BRANCH   6  27
DOCKED: ATOM     27  C   UNL     1      11.652  23.632  17.283 -0.17 -0.01    +0.164 C  
DOCKED: BRANCH  27  28
DOCKED: ATOM     28  N   UNL     1      11.984  22.723  18.386 -0.04 +0.04    -0.302 N  
DOCKED: ATOM     29  C   UNL     1      13.107  21.939  18.485 -0.13 -0.03    +0.239 C  
DOCKED: ATOM     30  O   UNL     1      13.860  21.676  17.557 -0.24 +0.04    -0.273 OA 
DOCKED: ATOM     31  H   UNL     1      11.393  22.778  19.212 +0.03 -0.03    +0.150 HD 
DOCKED: BRANCH  29  32
DOCKED: ATOM     32  C   UNL     1      13.337  21.389  19.897 -0.07 -0.03    +0.251 C  
DOCKED: BRANCH  32  33
DOCKED: ATOM     33  O   UNL     1      12.501  22.027  20.856 -0.00 +0.06    -0.386 OA 
DOCKED: ATOM     34  H   UNL     1      11.738  21.433  20.985 +0.01 -0.03    +0.210 HD 
DOCKED: ENDBRANCH  32  33
DOCKED: ENDBRANCH  29  32
DOCKED: ENDBRANCH  27  28
DOCKED: BRANCH  27  35
DOCKED: ATOM     35  C   UNL     1      10.968  22.896  16.077 -0.36 +0.00    -0.011 C  
DOCKED: ATOM     36  C   UNL     1       9.763  22.082  16.598 -0.27 -0.00    +0.013 C  
DOCKED: ATOM     37  C   UNL     1      10.408  23.935  15.072 -0.45 +0.00    +0.013 C  
DOCKED: ATOM     38  C   UNL     1      11.911  21.967  15.293 -0.35 +0.00    +0.013 C  
DOCKED: ENDBRANCH  27  35
DOCKED: ENDBRANCH   6  27
DOCKED: TORSDOF 10
DOCKED: TER
DOCKED: ENDMDL
________________________________________________________________________________


    FINAL DOCKED STATE:
    ________________________


Run:   25 / 50
Time taken for this run:   0.000s

DOCKED: MODEL        25
DOCKED: USER    Run = 25
DOCKED: USER
DOCKED: USER    Estimated Free Energy of Binding    =  -2.97 kcal/mol  [=(1)+(2)+(3)-(4)]
DOCKED: USER
DOCKED: USER    (1) Final Intermolecular Energy     =  -5.95 kcal/mol
DOCKED: USER        vdW + Hbond + desolv Energy     =  -5.63 kcal/mol
DOCKED: USER        Electrostatic Energy            =  -0.32 kcal/mol
DOCKED: USER        Moving Ligand-Fixed Receptor    =  -5.95 kcal/mol
DOCKED: USER        Moving Ligand-Moving Receptor   =  +0.00 kcal/mol
DOCKED: USER    (2) Final Total Internal Energy     =  -5.07 kcal/mol
DOCKED: USER    (3) Torsional Free Energy           =  +2.98 kcal/mol
DOCKED: USER    (4) Unbound System's Energy         =  -5.07 kcal/mol
DOCKED: USER
DOCKED: USER
DOCKED: REMARK  Name = 
DOCKED: REMARK  14 active torsions:
DOCKED: REMARK  status: ('A' for Active; 'I' for Inactive)
DOCKED: REMARK    1  A    between atoms: C_1  and  C_2
DOCKED: REMARK    2  A    between atoms: C_6  and  C_7
DOCKED: REMARK    3  A    between atoms: C_10  and  C_11
DOCKED: REMARK    4  A    between atoms: C_11  and  N_12
DOCKED: REMARK    5  A    between atoms: C_13  and  C_15
DOCKED: REMARK    6  A    between atoms: C_17  and  O_18
DOCKED: REMARK    7  A    between atoms: C_21  and  C_23
DOCKED: REMARK    8  A    between atoms: C_23  and  N_24
DOCKED: REMARK    9  A    between atoms: C_23  and  C_29
DOCKED: REMARK   10  A    between atoms: C_25  and  C_27
DOCKED: REMARK   11  A    between atoms: C_27  and  O_28
DOCKED: REMARK   12  A    between atoms: C_29  and  C_30
DOCKED: REMARK   13  A    between atoms: C_29  and  C_31
DOCKED: REMARK   14  A    between atoms: C_29  and  C_32
DOCKED: REMARK                            x       y       z     vdW  Elec       q    Type
DOCKED: REMARK                         _______ _______ _______ _____ _____    ______ ____
DOCKED: USER                              x       y       z     vdW  Elec       q    Type
DOCKED: USER                           _______ _______ _______ _____ _____    ______ ____
DOCKED: ROOT
DOCKED: ATOM      1  C   UNL     1      11.729  24.442  17.627 -0.16 -0.01    +0.164 C  
DOCKED: ATOM      2  C   UNL     1      12.562  25.713  17.906 -0.18 +0.00    +0.065 C  
DOCKED: ATOM      3  C   UNL     1      11.540  26.818  18.056 -0.19 -0.03    +0.134 C  
DOCKED: ATOM      4  C   UNL     1      10.372  26.113  18.737 -0.12 -0.08    +0.140 C  
DOCKED: ATOM      5  N   UNL     1      10.422  24.727  18.264 -0.07 +0.10    -0.286 N  
DOCKED: ATOM      6  C   UNL     1       9.204  24.076  18.086 -0.11 -0.10    +0.237 C  
DOCKED: ATOM      7  O   UNL     1       8.158  24.687  18.330 -0.12 +0.20    -0.274 OA 
DOCKED: ENDROOT
DOCKED: BRANCH   1   9
DOCKED: ATOM      8  N   UNL     1      11.969  22.447  19.130 -0.02 +0.05    -0.310 N  
DOCKED: ATOM      9  C   UNL     1      12.468  23.146  18.056 -0.10 -0.02    +0.234 C  
DOCKED: ATOM     10  O   UNL     1      13.467  22.733  17.467 -0.17 +0.01    -0.274 OA 
DOCKED: ATOM     11  H   UNL     1      11.506  22.948  19.876 +0.02 -0.03    +0.149 HD 
DOCKED: BRANCH   8  12
DOCKED: ATOM     12  C   UNL     1      12.610  21.215  19.507 -0.10 -0.02    +0.139 C  
DOCKED: BRANCH  12  16
DOCKED: ATOM     13  C   UNL     1       9.894  17.911  18.816 -0.18 +0.00    -0.010 A  
DOCKED: ATOM     14  C   UNL     1      10.549  18.033  20.053 -0.11 -0.00    +0.009 A  
DOCKED: ATOM     15  C   UNL     1      11.453  19.076  20.295 -0.10 -0.00    +0.006 A  
DOCKED: ATOM     16  C   UNL     1      11.754  20.001  19.288 -0.11 +0.00    -0.030 A  
DOCKED: ATOM     17  C   UNL     1      11.119  19.873  18.051 -0.13 -0.00    +0.006 A  
DOCKED: ATOM     18  C   UNL     1      10.196  18.854  17.826 -0.18 -0.00    +0.009 A  
DOCKED: BRANCH  13  24
DOCKED: ATOM     19  C   UNL     1      10.161  14.641  18.993 -0.20 +0.00    +0.067 C  
DOCKED: ATOM     20  C   UNL     1       8.987  15.468  18.597 -0.19 +0.00    +0.053 A  
DOCKED: ATOM     21  N   UNL     1       7.839  14.781  18.235 -0.15 -0.02    -0.252 NA 
DOCKED: ATOM     22  C   UNL     1       6.894  15.630  17.911 -0.16 +0.00    +0.156 A  
DOCKED: ATOM     23  S   UNL     1       7.303  17.284  18.015 -0.22 +0.00    -0.075 S  
DOCKED: ATOM     24  C   UNL     1       8.894  16.860  18.548 -0.18 -0.00    +0.042 A  
DOCKED: ENDBRANCH  13  24
DOCKED: ENDBRANCH  12  16
DOCKED: ENDBRANCH   8  12
DOCKED: ENDBRANCH   1   9
DOCKED: BRANCH   3  25
DOCKED: ATOM     25  O   UNL     1      11.215  27.320  16.766 -0.56 -0.05    -0.390 OA 
DOCKED: ATOM     26  H   UNL     1      10.486  27.954  16.853 -0.36 -0.30    +0.210 HD 
DOCKED: ENDBRANCH   3  25
DOCKED: BRANCH   6  27
DOCKED: ATOM     27  C   UNL     1       9.161  22.590  17.616 -0.11 -0.04    +0.164 C  
DOCKED: BRANCH  27  28
DOCKED: ATOM     28  N   UNL     1       8.539  21.702  18.605 -0.01 +0.07    -0.302 N  
DOCKED: ATOM     29  C   UNL     1       8.718  21.746  19.966 -0.01 -0.05    +0.239 C  
DOCKED: ATOM     30  O   UNL     1       9.620  22.348  20.534 -0.00 +0.06    -0.273 OA 
DOCKED: ATOM     31  H   UNL     1       7.809  21.082  18.263 +0.03 -0.03    +0.150 HD 
DOCKED: BRANCH  29  32
DOCKED: ATOM     32  C   UNL     1       7.670  20.939  20.740 -0.00 -0.05    +0.251 C  
DOCKED: BRANCH  32  33
DOCKED: ATOM     33  O   UNL     1       6.906  20.101  19.880 -0.00 +0.07    -0.386 OA 
DOCKED: ATOM     34  H   UNL     1       5.992  20.437  19.922 +0.01 -0.04    +0.210 HD 
DOCKED: ENDBRANCH  32  33
DOCKED: ENDBRANCH  29  32
DOCKED: ENDBRANCH  27  28
DOCKED: BRANCH  27  35
DOCKED: ATOM     35  C   UNL     1       8.617  22.352  16.163 -0.35 +0.00    -0.011 C  
DOCKED: ATOM     36  C   UNL     1       9.388  23.260  15.179 -0.36 -0.00    +0.013 C  
DOCKED: ATOM     37  C   UNL     1       8.888  20.889  15.731 -0.36 -0.00    +0.013 C  
DOCKED: ATOM     38  C   UNL     1       7.107  22.601  16.010 -0.32 -0.01    +0.013 C  
DOCKED: ENDBRANCH  27  35
DOCKED: ENDBRANCH   6  27
DOCKED: TORSDOF 10
DOCKED: TER
DOCKED: ENDMDL
________________________________________________________________________________


    FINAL DOCKED STATE:
    ________________________


Run:   26 / 50
Time taken for this run:   0.000s

DOCKED: MODEL        26
DOCKED: USER    Run = 26
DOCKED: USER
DOCKED: USER    Estimated Free Energy of Binding    =  -3.24 kcal/mol  [=(1)+(2)+(3)-(4)]
DOCKED: USER
DOCKED: USER    (1) Final Intermolecular Energy     =  -6.22 kcal/mol
DOCKED: USER        vdW + Hbond + desolv Energy     =  -5.99 kcal/mol
DOCKED: USER        Electrostatic Energy            =  -0.23 kcal/mol
DOCKED: USER        Moving Ligand-Fixed Receptor    =  -6.22 kcal/mol
DOCKED: USER        Moving Ligand-Moving Receptor   =  +0.00 kcal/mol
DOCKED: USER    (2) Final Total Internal Energy     =  -4.77 kcal/mol
DOCKED: USER    (3) Torsional Free Energy           =  +2.98 kcal/mol
DOCKED: USER    (4) Unbound System's Energy         =  -4.77 kcal/mol
DOCKED: USER
DOCKED: USER
DOCKED: REMARK  Name = 
DOCKED: REMARK  14 active torsions:
DOCKED: REMARK  status: ('A' for Active; 'I' for Inactive)
DOCKED: REMARK    1  A    between atoms: C_1  and  C_2
DOCKED: REMARK    2  A    between atoms: C_6  and  C_7
DOCKED: REMARK    3  A    between atoms: C_10  and  C_11
DOCKED: REMARK    4  A    between atoms: C_11  and  N_12
DOCKED: REMARK    5  A    between atoms: C_13  and  C_15
DOCKED: REMARK    6  A    between atoms: C_17  and  O_18
DOCKED: REMARK    7  A    between atoms: C_21  and  C_23
DOCKED: REMARK    8  A    between atoms: C_23  and  N_24
DOCKED: REMARK    9  A    between atoms: C_23  and  C_29
DOCKED: REMARK   10  A    between atoms: C_25  and  C_27
DOCKED: REMARK   11  A    between atoms: C_27  and  O_28
DOCKED: REMARK   12  A    between atoms: C_29  and  C_30
DOCKED: REMARK   13  A    between atoms: C_29  and  C_31
DOCKED: REMARK   14  A    between atoms: C_29  and  C_32
DOCKED: REMARK                            x       y       z     vdW  Elec       q    Type
DOCKED: REMARK                         _______ _______ _______ _____ _____    ______ ____
DOCKED: USER                              x       y       z     vdW  Elec       q    Type
DOCKED: USER                           _______ _______ _______ _____ _____    ______ ____
DOCKED: ROOT
DOCKED: ATOM      1  C   UNL     1       9.813  21.769  17.802 -0.10 -0.03    +0.164 C  
DOCKED: ATOM      2  C   UNL     1       8.710  20.713  17.564 -0.15 -0.01    +0.065 C  
DOCKED: ATOM      3  C   UNL     1       8.642  20.561  16.061 -0.30 -0.02    +0.134 C  
DOCKED: ATOM      4  C   UNL     1      10.095  20.728  15.633 -0.19 -0.01    +0.140 C  
DOCKED: ATOM      5  N   UNL     1      10.688  21.641  16.614 -0.12 +0.03    -0.286 N  
DOCKED: ATOM      6  C   UNL     1      11.661  22.522  16.148 -0.23 +0.00    +0.237 C  
DOCKED: ATOM      7  O   UNL     1      11.971  22.494  14.952 -0.26 -0.06    -0.274 OA 
DOCKED: ENDROOT
DOCKED: BRANCH   1   9
DOCKED: ATOM      8  N   UNL     1      10.911  20.377  19.579 -0.04 +0.05    -0.310 N  
DOCKED: ATOM      9  C   UNL     1      10.475  21.625  19.199 -0.04 -0.04    +0.234 C  
DOCKED: ATOM     10  O   UNL     1      10.621  22.582  19.959 -0.01 +0.06    -0.274 OA 
DOCKED: ATOM     11  H   UNL     1      10.421  19.558  19.245 +0.03 -0.02    +0.149 HD 
DOCKED: BRANCH   8  12
DOCKED: ATOM     12  C   UNL     1      11.576  20.237  20.847 -0.05 -0.02    +0.139 C  
DOCKED: BRANCH  12  16
DOCKED: ATOM     13  C   UNL     1      14.930  17.522  20.453 -0.19 +0.00    -0.010 A  
DOCKED: ATOM     14  C   UNL     1      13.685  17.039  20.888 -0.14 -0.00    +0.009 A  
DOCKED: ATOM     15  C   UNL     1      12.590  17.899  21.051 -0.11 -0.00    +0.006 A  
DOCKED: ATOM     16  C   UNL     1      12.727  19.272  20.819 -0.10 +0.00    -0.030 A  
DOCKED: ATOM     17  C   UNL     1      13.968  19.760  20.404 -0.15 -0.00    +0.006 A  
DOCKED: ATOM     18  C   UNL     1      15.044  18.897  20.212 -0.23 -0.00    +0.009 A  
DOCKED: BRANCH  13  24
DOCKED: ATOM     19  C   UNL     1      18.149  18.174  20.539 -0.15 -0.02    +0.067 C  
DOCKED: ATOM     20  C   UNL     1      17.458  16.891  20.229 -0.22 -0.01    +0.053 A  
DOCKED: ATOM     21  N   UNL     1      18.267  15.811  19.916 -0.14 +0.08    -0.252 NA 
DOCKED: ATOM     22  C   UNL     1      17.529  14.757  19.666 -0.21 -0.03    +0.156 A  
DOCKED: ATOM     23  S   UNL     1      15.840  14.978  19.785 -0.26 +0.01    -0.075 S  
DOCKED: ATOM     24  C   UNL     1      16.086  16.637  20.218 -0.26 -0.01    +0.042 A  
DOCKED: ENDBRANCH  13  24
DOCKED: ENDBRANCH  12  16
DOCKED: ENDBRANCH   8  12
DOCKED: ENDBRANCH   1   9
DOCKED: BRANCH   3  25
DOCKED: ATOM     25  O   UNL     1       7.785  21.568  15.537 -0.21 +0.12    -0.390 OA 
DOCKED: ATOM     26  H   UNL     1       8.054  21.761  14.624 -0.30 -0.08    +0.210 HD 
DOCKED: ENDBRANCH   3  25
DOCKED: BRANCH   6  27
DOCKED: ATOM     27  C   UNL     1      12.369  23.509  17.125 -0.17 +0.00    +0.164 C  
DOCKED: BRANCH  27  28
DOCKED: ATOM     28  N   UNL     1      11.421  24.268  17.949 -0.07 +0.04    -0.302 N  
DOCKED: ATOM     29  C   UNL     1      10.815  25.453  17.612 -0.17 -0.07    +0.239 C  
DOCKED: ATOM     30  O   UNL     1      11.172  26.186  16.699 -0.52 -0.06    -0.273 OA 
DOCKED: ATOM     31  H   UNL     1      11.083  23.808  18.791 +0.03 -0.03    +0.150 HD 
DOCKED: BRANCH  29  32
DOCKED: ATOM     32  C   UNL     1       9.623  25.799  18.511 -0.08 -0.20    +0.251 C  
DOCKED: BRANCH  32  33
DOCKED: ATOM     33  O   UNL     1       9.144  24.660  19.217 -0.04 +0.19    -0.386 OA 
DOCKED: ATOM     34  H   UNL     1       9.915  24.291  19.686 +0.03 -0.07    +0.210 HD 
DOCKED: ENDBRANCH  32  33
DOCKED: ENDBRANCH  29  32
DOCKED: ENDBRANCH  27  28
DOCKED: BRANCH  27  35
DOCKED: ATOM     35  C   UNL     1      13.552  22.905  17.963 -0.23 +0.00    -0.011 C  
DOCKED: ATOM     36  C   UNL     1      13.647  21.389  17.684 -0.29 -0.00    +0.013 C  
DOCKED: ATOM     37  C   UNL     1      14.895  23.531  17.509 -0.26 -0.00    +0.013 C  
DOCKED: ATOM     38  C   UNL     1      13.429  23.139  19.479 -0.08 -0.00    +0.013 C  
DOCKED: ENDBRANCH  27  35
DOCKED: ENDBRANCH   6  27
DOCKED: TORSDOF 10
DOCKED: TER
DOCKED: ENDMDL
________________________________________________________________________________


    FINAL DOCKED STATE:
    ________________________


Run:   27 / 50
Time taken for this run:   0.000s

DOCKED: MODEL        27
DOCKED: USER    Run = 27
DOCKED: USER
DOCKED: USER    Estimated Free Energy of Binding    =  -2.49 kcal/mol  [=(1)+(2)+(3)-(4)]
DOCKED: USER
DOCKED: USER    (1) Final Intermolecular Energy     =  -5.48 kcal/mol
DOCKED: USER        vdW + Hbond + desolv Energy     =  -5.29 kcal/mol
DOCKED: USER        Electrostatic Energy            =  -0.19 kcal/mol
DOCKED: USER        Moving Ligand-Fixed Receptor    =  -5.48 kcal/mol
DOCKED: USER        Moving Ligand-Moving Receptor   =  +0.00 kcal/mol
DOCKED: USER    (2) Final Total Internal Energy     =  -5.11 kcal/mol
DOCKED: USER    (3) Torsional Free Energy           =  +2.98 kcal/mol
DOCKED: USER    (4) Unbound System's Energy         =  -5.11 kcal/mol
DOCKED: USER
DOCKED: USER
DOCKED: REMARK  Name = 
DOCKED: REMARK  14 active torsions:
DOCKED: REMARK  status: ('A' for Active; 'I' for Inactive)
DOCKED: REMARK    1  A    between atoms: C_1  and  C_2
DOCKED: REMARK    2  A    between atoms: C_6  and  C_7
DOCKED: REMARK    3  A    between atoms: C_10  and  C_11
DOCKED: REMARK    4  A    between atoms: C_11  and  N_12
DOCKED: REMARK    5  A    between atoms: C_13  and  C_15
DOCKED: REMARK    6  A    between atoms: C_17  and  O_18
DOCKED: REMARK    7  A    between atoms: C_21  and  C_23
DOCKED: REMARK    8  A    between atoms: C_23  and  N_24
DOCKED: REMARK    9  A    between atoms: C_23  and  C_29
DOCKED: REMARK   10  A    between atoms: C_25  and  C_27
DOCKED: REMARK   11  A    between atoms: C_27  and  O_28
DOCKED: REMARK   12  A    between atoms: C_29  and  C_30
DOCKED: REMARK   13  A    between atoms: C_29  and  C_31
DOCKED: REMARK   14  A    between atoms: C_29  and  C_32
DOCKED: REMARK                            x       y       z     vdW  Elec       q    Type
DOCKED: REMARK                         _______ _______ _______ _____ _____    ______ ____
DOCKED: USER                              x       y       z     vdW  Elec       q    Type
DOCKED: USER                           _______ _______ _______ _____ _____    ______ ____
DOCKED: ROOT
DOCKED: ATOM      1  C   UNL     1       7.750  22.600  18.151 -0.07 -0.06    +0.164 C  
DOCKED: ATOM      2  C   UNL     1       6.226  22.835  18.241 -0.07 -0.02    +0.065 C  
DOCKED: ATOM      3  C   UNL     1       5.907  23.740  17.071 -0.18 -0.08    +0.134 C  
DOCKED: ATOM      4  C   UNL     1       6.870  23.257  15.992 -0.20 -0.07    +0.140 C  
DOCKED: ATOM      5  N   UNL     1       8.052  22.775  16.711 -0.14 +0.10    -0.286 N  
DOCKED: ATOM      6  C   UNL     1       9.286  22.965  16.095 -0.25 -0.06    +0.237 C  
DOCKED: ATOM      7  O   UNL     1       9.325  23.523  14.993 -0.29 +0.05    -0.274 OA 
DOCKED: ENDROOT
DOCKED: BRANCH   1   9
DOCKED: ATOM      8  N   UNL     1       7.910  21.097  20.155 +0.00 +0.06    -0.310 N  
DOCKED: ATOM      9  C   UNL     1       8.181  21.265  18.816 -0.03 -0.05    +0.234 C  
DOCKED: ATOM     10  O   UNL     1       8.743  20.368  18.188 -0.05 +0.05    -0.274 OA 
DOCKED: ATOM     11  H   UNL     1       7.906  21.903  20.764 +0.01 -0.03    +0.149 HD 
DOCKED: BRANCH   8  12
DOCKED: ATOM     12  C   UNL     1       8.254  19.845  20.774 -0.01 -0.02    +0.139 C  
DOCKED: BRANCH  12  16
DOCKED: ATOM     13  C   UNL     1      12.536  19.238  20.515 -0.11 +0.00    -0.010 A  
DOCKED: ATOM     14  C   UNL     1      11.658  18.205  20.144 -0.09 -0.00    +0.009 A  
DOCKED: ATOM     15  C   UNL     1      10.269  18.364  20.244 -0.09 -0.00    +0.006 A  
DOCKED: ATOM     16  C   UNL     1       9.726  19.549  20.755 -0.03 +0.00    -0.030 A  
DOCKED: ATOM     17  C   UNL     1      10.595  20.571  21.142 -0.02 -0.00    +0.006 A  
DOCKED: ATOM     18  C   UNL     1      11.974  20.421  21.010 -0.05 -0.00    +0.009 A  
DOCKED: BRANCH  13  24
DOCKED: ATOM     19  C   UNL     1      14.684  21.263  19.073 -0.21 -0.01    +0.067 C  
DOCKED: ATOM     20  C   UNL     1      14.930  19.958  19.747 -0.20 -0.00    +0.053 A  
DOCKED: ATOM     21  N   UNL     1      16.240  19.508  19.768 -0.51 -0.04    -0.252 NA 
DOCKED: ATOM     22  C   UNL     1      16.307  18.356  20.388 -0.23 -0.02    +0.156 A  
DOCKED: ATOM     23  S   UNL     1      14.832  17.735  20.981 -0.20 +0.01    -0.075 S  
DOCKED: ATOM     24  C   UNL     1      13.999  19.124  20.369 -0.15 -0.01    +0.042 A  
DOCKED: ENDBRANCH  13  24
DOCKED: ENDBRANCH  12  16
DOCKED: ENDBRANCH   8  12
DOCKED: ENDBRANCH   1   9
DOCKED: BRANCH   3  25
DOCKED: ATOM     25  O   UNL     1       6.134  25.089  17.460 -0.09 +0.46    -0.390 OA 
DOCKED: ATOM     26  H   UNL     1       6.011  25.662  16.686 -0.31 -0.40    +0.210 HD 
DOCKED: ENDBRANCH   3  25
DOCKED: BRANCH   6  27
DOCKED: ATOM     27  C   UNL     1      10.596  22.457  16.770 -0.20 -0.02    +0.164 C  
DOCKED: BRANCH  27  28
DOCKED: ATOM     28  N   UNL     1      10.612  22.688  18.219 -0.02 +0.06    -0.302 N  
DOCKED: ATOM     29  C   UNL     1      11.230  23.727  18.872 -0.04 -0.05    +0.239 C  
DOCKED: ATOM     30  O   UNL     1      12.077  24.458  18.377 -0.07 +0.03    -0.273 OA 
DOCKED: ATOM     31  H   UNL     1      10.001  22.098  18.780 +0.03 -0.03    +0.150 HD 
DOCKED: BRANCH  29  32
DOCKED: ATOM     32  C   UNL     1      10.766  23.889  20.323 -0.01 -0.06    +0.251 C  
DOCKED: BRANCH  32  33
DOCKED: ATOM     33  O   UNL     1       9.501  23.276  20.547 +0.00 +0.10    -0.386 OA 
DOCKED: ATOM     34  H   UNL     1       8.861  24.006  20.633 +0.01 -0.07    +0.210 HD 
DOCKED: ENDBRANCH  32  33
DOCKED: ENDBRANCH  29  32
DOCKED: ENDBRANCH  27  28
DOCKED: BRANCH  27  35
DOCKED: ATOM     35  C   UNL     1      11.039  21.001  16.385 -0.35 +0.00    -0.011 C  
DOCKED: ATOM     36  C   UNL     1      12.247  21.077  15.425 -0.49 -0.00    +0.013 C  
DOCKED: ATOM     37  C   UNL     1      11.517  20.242  17.649 -0.16 -0.00    +0.013 C  
DOCKED: ATOM     38  C   UNL     1       9.926  20.157  15.739 -0.40 -0.00    +0.013 C  
DOCKED: ENDBRANCH  27  35
DOCKED: ENDBRANCH   6  27
DOCKED: TORSDOF 10
DOCKED: TER
DOCKED: ENDMDL
________________________________________________________________________________


    FINAL DOCKED STATE:
    ________________________


Run:   28 / 50
Time taken for this run:   0.000s

DOCKED: MODEL        28
DOCKED: USER    Run = 28
DOCKED: USER
DOCKED: USER    Estimated Free Energy of Binding    =  -4.14 kcal/mol  [=(1)+(2)+(3)-(4)]
DOCKED: USER
DOCKED: USER    (1) Final Intermolecular Energy     =  -7.12 kcal/mol
DOCKED: USER        vdW + Hbond + desolv Energy     =  -6.65 kcal/mol
DOCKED: USER        Electrostatic Energy            =  -0.47 kcal/mol
DOCKED: USER        Moving Ligand-Fixed Receptor    =  -7.12 kcal/mol
DOCKED: USER        Moving Ligand-Moving Receptor   =  +0.00 kcal/mol
DOCKED: USER    (2) Final Total Internal Energy     =  -3.39 kcal/mol
DOCKED: USER    (3) Torsional Free Energy           =  +2.98 kcal/mol
DOCKED: USER    (4) Unbound System's Energy         =  -3.39 kcal/mol
DOCKED: USER
DOCKED: USER
DOCKED: REMARK  Name = 
DOCKED: REMARK  14 active torsions:
DOCKED: REMARK  status: ('A' for Active; 'I' for Inactive)
DOCKED: REMARK    1  A    between atoms: C_1  and  C_2
DOCKED: REMARK    2  A    between atoms: C_6  and  C_7
DOCKED: REMARK    3  A    between atoms: C_10  and  C_11
DOCKED: REMARK    4  A    between atoms: C_11  and  N_12
DOCKED: REMARK    5  A    between atoms: C_13  and  C_15
DOCKED: REMARK    6  A    between atoms: C_17  and  O_18
DOCKED: REMARK    7  A    between atoms: C_21  and  C_23
DOCKED: REMARK    8  A    between atoms: C_23  and  N_24
DOCKED: REMARK    9  A    between atoms: C_23  and  C_29
DOCKED: REMARK   10  A    between atoms: C_25  and  C_27
DOCKED: REMARK   11  A    between atoms: C_27  and  O_28
DOCKED: REMARK   12  A    between atoms: C_29  and  C_30
DOCKED: REMARK   13  A    between atoms: C_29  and  C_31
DOCKED: REMARK   14  A    between atoms: C_29  and  C_32
DOCKED: REMARK                            x       y       z     vdW  Elec       q    Type
DOCKED: REMARK                         _______ _______ _______ _____ _____    ______ ____
DOCKED: USER                              x       y       z     vdW  Elec       q    Type
DOCKED: USER                           _______ _______ _______ _____ _____    ______ ____
DOCKED: ROOT
DOCKED: ATOM      1  C   UNL     1      12.496  22.662  17.517 -0.18 -0.01    +0.164 C  
DOCKED: ATOM      2  C   UNL     1      12.777  21.361  16.732 -0.33 -0.01    +0.065 C  
DOCKED: ATOM      3  C   UNL     1      11.733  21.340  15.637 -0.36 -0.01    +0.134 C  
DOCKED: ATOM      4  C   UNL     1      11.584  22.814  15.279 -0.20 +0.02    +0.140 C  
DOCKED: ATOM      5  N   UNL     1      11.854  23.547  16.518 -0.14 -0.02    -0.286 N  
DOCKED: ATOM      6  C   UNL     1      11.132  24.719  16.727 -0.19 +0.00    +0.237 C  
DOCKED: ATOM      7  O   UNL     1      10.313  25.078  15.874 -0.20 +0.02    -0.274 OA 
DOCKED: ENDROOT
DOCKED: BRANCH   1   9
DOCKED: ATOM      8  N   UNL     1      14.303  24.382  17.797 -0.08 -0.01    -0.310 N  
DOCKED: ATOM      9  C   UNL     1      13.761  23.198  18.241 -0.13 -0.02    +0.234 C  
DOCKED: ATOM     10  O   UNL     1      14.278  22.604  19.187 -0.07 +0.03    -0.274 OA 
DOCKED: ATOM     11  H   UNL     1      14.228  24.625  16.819 +0.08 +0.04    +0.149 HD 
DOCKED: BRANCH   8  12
DOCKED: ATOM     12  C   UNL     1      15.442  24.920  18.491 -0.11 -0.01    +0.139 C  
DOCKED: BRANCH  12  16
DOCKED: ATOM     13  C   UNL     1      19.212  25.054  16.360 -0.20 +0.00    -0.010 A  
DOCKED: ATOM     14  C   UNL     1      18.228  26.024  16.105 -0.27 +0.00    +0.009 A  
DOCKED: ATOM     15  C   UNL     1      16.989  25.989  16.759 -0.27 +0.00    +0.006 A  
DOCKED: ATOM     16  C   UNL     1      16.691  24.958  17.658 -0.20 +0.00    -0.030 A  
DOCKED: ATOM     17  C   UNL     1      17.659  23.981  17.900 -0.23 -0.00    +0.006 A  
DOCKED: ATOM     18  C   UNL     1      18.901  24.039  17.272 -0.25 -0.00    +0.009 A  
DOCKED: BRANCH  13  24
DOCKED: ATOM     19  C   UNL     1      20.947  27.608  15.236 -0.13 -0.01    +0.067 C  
DOCKED: ATOM     20  C   UNL     1      21.295  26.159  15.229 -0.16 -0.01    +0.053 A  
DOCKED: ATOM     21  N   UNL     1      22.511  25.816  14.660 -0.11 +0.06    -0.252 NA 
DOCKED: ATOM     22  C   UNL     1      22.683  24.518  14.723 -0.17 -0.05    +0.156 A  
DOCKED: ATOM     23  S   UNL     1      21.424  23.628  15.453 -0.37 +0.02    -0.075 S  
DOCKED: ATOM     24  C   UNL     1      20.546  25.094  15.731 -0.20 -0.01    +0.042 A  
DOCKED: ENDBRANCH  13  24
DOCKED: ENDBRANCH  12  16
DOCKED: ENDBRANCH   8  12
DOCKED: ENDBRANCH   1   9
DOCKED: BRANCH   3  25
DOCKED: ATOM     25  O   UNL     1      10.538  20.766  16.154 -0.15 +0.05    -0.390 OA 
DOCKED: ATOM     26  H   UNL     1       9.993  21.473  16.535 +0.10 -0.03    +0.210 HD 
DOCKED: ENDBRANCH   3  25
DOCKED: BRANCH   6  27
DOCKED: ATOM     27  C   UNL     1      11.374  25.582  18.003 -0.17 -0.03    +0.164 C  
DOCKED: BRANCH  27  28
DOCKED: ATOM     28  N   UNL     1      11.183  27.017  17.760 -0.15 +0.11    -0.302 N  
DOCKED: ATOM     29  C   UNL     1      11.779  28.046  18.447 -0.13 -0.07    +0.239 C  
DOCKED: ATOM     30  O   UNL     1      12.343  27.931  19.527 -0.03 +0.06    -0.273 OA 
DOCKED: ATOM     31  H   UNL     1      10.664  27.270  16.923 -0.23 -0.11    +0.150 HD 
DOCKED: BRANCH  29  32
DOCKED: ATOM     32  C   UNL     1      11.663  29.397  17.733 -0.12 -0.04    +0.251 C  
DOCKED: BRANCH  32  33
DOCKED: ATOM     33  O   UNL     1      11.153  29.255  16.411 -0.62 -0.05    -0.386 OA 
DOCKED: ATOM     34  H   UNL     1      10.182  29.244  16.499 -0.39 -0.40    +0.210 HD 
DOCKED: ENDBRANCH  32  33
DOCKED: ENDBRANCH  29  32
DOCKED: ENDBRANCH  27  28
DOCKED: BRANCH  27  35
DOCKED: ATOM     35  C   UNL     1      10.651  25.088  19.306 -0.08 +0.00    -0.011 C  
DOCKED: ATOM     36  C   UNL     1      11.678  25.008  20.456 -0.02 -0.00    +0.013 C  
DOCKED: ATOM     37  C   UNL     1       9.574  26.117  19.735 -0.09 -0.01    +0.013 C  
DOCKED: ATOM     38  C   UNL     1       9.947  23.728  19.155 -0.07 -0.00    +0.013 C  
DOCKED: ENDBRANCH  27  35
DOCKED: ENDBRANCH   6  27
DOCKED: TORSDOF 10
DOCKED: TER
DOCKED: ENDMDL
________________________________________________________________________________


    FINAL DOCKED STATE:
    ________________________


Run:   29 / 50
Time taken for this run:   0.000s

DOCKED: MODEL        29
DOCKED: USER    Run = 29
DOCKED: USER
DOCKED: USER    Estimated Free Energy of Binding    =  -3.11 kcal/mol  [=(1)+(2)+(3)-(4)]
DOCKED: USER
DOCKED: USER    (1) Final Intermolecular Energy     =  -6.09 kcal/mol
DOCKED: USER        vdW + Hbond + desolv Energy     =  -5.78 kcal/mol
DOCKED: USER        Electrostatic Energy            =  -0.31 kcal/mol
DOCKED: USER        Moving Ligand-Fixed Receptor    =  -6.09 kcal/mol
DOCKED: USER        Moving Ligand-Moving Receptor   =  +0.00 kcal/mol
DOCKED: USER    (2) Final Total Internal Energy     =  -5.17 kcal/mol
DOCKED: USER    (3) Torsional Free Energy           =  +2.98 kcal/mol
DOCKED: USER    (4) Unbound System's Energy         =  -5.17 kcal/mol
DOCKED: USER
DOCKED: USER
DOCKED: REMARK  Name = 
DOCKED: REMARK  14 active torsions:
DOCKED: REMARK  status: ('A' for Active; 'I' for Inactive)
DOCKED: REMARK    1  A    between atoms: C_1  and  C_2
DOCKED: REMARK    2  A    between atoms: C_6  and  C_7
DOCKED: REMARK    3  A    between atoms: C_10  and  C_11
DOCKED: REMARK    4  A    between atoms: C_11  and  N_12
DOCKED: REMARK    5  A    between atoms: C_13  and  C_15
DOCKED: REMARK    6  A    between atoms: C_17  and  O_18
DOCKED: REMARK    7  A    between atoms: C_21  and  C_23
DOCKED: REMARK    8  A    between atoms: C_23  and  N_24
DOCKED: REMARK    9  A    between atoms: C_23  and  C_29
DOCKED: REMARK   10  A    between atoms: C_25  and  C_27
DOCKED: REMARK   11  A    between atoms: C_27  and  O_28
DOCKED: REMARK   12  A    between atoms: C_29  and  C_30
DOCKED: REMARK   13  A    between atoms: C_29  and  C_31
DOCKED: REMARK   14  A    between atoms: C_29  and  C_32
DOCKED: REMARK                            x       y       z     vdW  Elec       q    Type
DOCKED: REMARK                         _______ _______ _______ _____ _____    ______ ____
DOCKED: USER                              x       y       z     vdW  Elec       q    Type
DOCKED: USER                           _______ _______ _______ _____ _____    ______ ____
DOCKED: ROOT
DOCKED: ATOM      1  C   UNL     1      11.646  24.455  17.540 -0.16 -0.01    +0.164 C  
DOCKED: ATOM      2  C   UNL     1      12.525  25.697  17.812 -0.18 +0.00    +0.065 C  
DOCKED: ATOM      3  C   UNL     1      11.540  26.823  18.035 -0.19 -0.03    +0.134 C  
DOCKED: ATOM      4  C   UNL     1      10.386  26.131  18.752 -0.12 -0.08    +0.140 C  
DOCKED: ATOM      5  N   UNL     1      10.378  24.756  18.244 -0.07 +0.10    -0.286 N  
DOCKED: ATOM      6  C   UNL     1       9.137  24.141  18.108 -0.11 -0.11    +0.237 C  
DOCKED: ATOM      7  O   UNL     1       8.119  24.773  18.414 -0.12 +0.20    -0.274 OA 
DOCKED: ENDROOT
DOCKED: BRANCH   1   9
DOCKED: ATOM      8  N   UNL     1      11.839  22.364  18.915 -0.02 +0.05    -0.310 N  
DOCKED: ATOM      9  C   UNL     1      12.370  23.130  17.903 -0.11 -0.02    +0.234 C  
DOCKED: ATOM     10  O   UNL     1      13.385  22.753  17.318 -0.18 +0.01    -0.274 OA 
DOCKED: ATOM     11  H   UNL     1      11.356  22.817  19.678 +0.02 -0.03    +0.149 HD 
DOCKED: BRANCH   8  12
DOCKED: ATOM     12  C   UNL     1      12.466  21.107  19.227 -0.11 -0.02    +0.139 C  
DOCKED: BRANCH  12  16
DOCKED: ATOM     13  C   UNL     1       9.642  17.888  18.565 -0.19 +0.00    -0.010 A  
DOCKED: ATOM     14  C   UNL     1      10.347  17.963  19.778 -0.13 -0.00    +0.009 A  
DOCKED: ATOM     15  C   UNL     1      11.286  18.978  20.009 -0.11 -0.00    +0.006 A  
DOCKED: ATOM     16  C   UNL     1      11.571  19.920  19.014 -0.11 +0.00    -0.030 A  
DOCKED: ATOM     17  C   UNL     1      10.887  19.837  17.799 -0.16 -0.00    +0.006 A  
DOCKED: ATOM     18  C   UNL     1       9.930  18.847  17.587 -0.23 -0.00    +0.009 A  
DOCKED: BRANCH  13  24
DOCKED: ATOM     19  C   UNL     1       6.604  18.209  17.355 -0.20 -0.01    +0.067 C  
DOCKED: ATOM     20  C   UNL     1       7.307  16.980  17.818 -0.16 -0.00    +0.053 A  
DOCKED: ATOM     21  N   UNL     1       6.591  15.795  17.752 -0.14 -0.00    -0.252 NA 
DOCKED: ATOM     22  C   UNL     1       7.327  14.803  18.189 -0.17 +0.01    +0.156 A  
DOCKED: ATOM     23  S   UNL     1       8.903  15.208  18.705 -0.25 -0.00    -0.075 S  
DOCKED: ATOM     24  C   UNL     1       8.607  16.868  18.312 -0.17 -0.00    +0.042 A  
DOCKED: ENDBRANCH  13  24
DOCKED: ENDBRANCH  12  16
DOCKED: ENDBRANCH   8  12
DOCKED: ENDBRANCH   1   9
DOCKED: BRANCH   3  25
DOCKED: ATOM     25  O   UNL     1      11.170  27.365  16.773 -0.57 -0.02    -0.390 OA 
DOCKED: ATOM     26  H   UNL     1      10.439  27.991  16.905 -0.36 -0.33    +0.210 HD 
DOCKED: ENDBRANCH   3  25
DOCKED: BRANCH   6  27
DOCKED: ATOM     27  C   UNL     1       9.033  22.669  17.605 -0.11 -0.05    +0.164 C  
DOCKED: BRANCH  27  28
DOCKED: ATOM     28  N   UNL     1       8.350  21.791  18.562 -0.01 +0.07    -0.302 N  
DOCKED: ATOM     29  C   UNL     1       8.552  21.753  19.920 -0.01 -0.05    +0.239 C  
DOCKED: ATOM     30  O   UNL     1       9.511  22.247  20.498 -0.00 +0.06    -0.273 OA 
DOCKED: ATOM     31  H   UNL     1       7.563  21.255  18.204 +0.03 -0.03    +0.150 HD 
DOCKED: BRANCH  29  32
DOCKED: ATOM     32  C   UNL     1       7.448  21.004  20.674 -0.00 -0.05    +0.251 C  
DOCKED: BRANCH  32  33
DOCKED: ATOM     33  O   UNL     1       6.660  20.202  19.801 +0.00 +0.07    -0.386 OA 
DOCKED: ATOM     34  H   UNL     1       6.092  19.658  20.376 +0.01 -0.03    +0.210 HD 
DOCKED: ENDBRANCH  32  33
DOCKED: ENDBRANCH  29  32
DOCKED: ENDBRANCH  27  28
DOCKED: BRANCH  27  35
DOCKED: ATOM     35  C   UNL     1       8.508  22.488  16.136 -0.35 +0.00    -0.011 C  
DOCKED: ATOM     36  C   UNL     1       7.108  23.130  16.016 -0.29 -0.01    +0.013 C  
DOCKED: ATOM     37  C   UNL     1       9.434  23.241  15.148 -0.36 -0.00    +0.013 C  
DOCKED: ATOM     38  C   UNL     1       8.438  21.023  15.671 -0.37 -0.00    +0.013 C  
DOCKED: ENDBRANCH  27  35
DOCKED: ENDBRANCH   6  27
DOCKED: TORSDOF 10
DOCKED: TER
DOCKED: ENDMDL
________________________________________________________________________________


    FINAL DOCKED STATE:
    ________________________


Run:   30 / 50
Time taken for this run:   0.000s

DOCKED: MODEL        30
DOCKED: USER    Run = 30
DOCKED: USER
DOCKED: USER    Estimated Free Energy of Binding    =  -2.55 kcal/mol  [=(1)+(2)+(3)-(4)]
DOCKED: USER
DOCKED: USER    (1) Final Intermolecular Energy     =  -5.53 kcal/mol
DOCKED: USER        vdW + Hbond + desolv Energy     =  -5.58 kcal/mol
DOCKED: USER        Electrostatic Energy            =  +0.04 kcal/mol
DOCKED: USER        Moving Ligand-Fixed Receptor    =  -5.53 kcal/mol
DOCKED: USER        Moving Ligand-Moving Receptor   =  +0.00 kcal/mol
DOCKED: USER    (2) Final Total Internal Energy     =  -5.09 kcal/mol
DOCKED: USER    (3) Torsional Free Energy           =  +2.98 kcal/mol
DOCKED: USER    (4) Unbound System's Energy         =  -5.09 kcal/mol
DOCKED: USER
DOCKED: USER
DOCKED: REMARK  Name = 
DOCKED: REMARK  14 active torsions:
DOCKED: REMARK  status: ('A' for Active; 'I' for Inactive)
DOCKED: REMARK    1  A    between atoms: C_1  and  C_2
DOCKED: REMARK    2  A    between atoms: C_6  and  C_7
DOCKED: REMARK    3  A    between atoms: C_10  and  C_11
DOCKED: REMARK    4  A    between atoms: C_11  and  N_12
DOCKED: REMARK    5  A    between atoms: C_13  and  C_15
DOCKED: REMARK    6  A    between atoms: C_17  and  O_18
DOCKED: REMARK    7  A    between atoms: C_21  and  C_23
DOCKED: REMARK    8  A    between atoms: C_23  and  N_24
DOCKED: REMARK    9  A    between atoms: C_23  and  C_29
DOCKED: REMARK   10  A    between atoms: C_25  and  C_27
DOCKED: REMARK   11  A    between atoms: C_27  and  O_28
DOCKED: REMARK   12  A    between atoms: C_29  and  C_30
DOCKED: REMARK   13  A    between atoms: C_29  and  C_31
DOCKED: REMARK   14  A    between atoms: C_29  and  C_32
DOCKED: REMARK                            x       y       z     vdW  Elec       q    Type
DOCKED: REMARK                         _______ _______ _______ _____ _____    ______ ____
DOCKED: USER                              x       y       z     vdW  Elec       q    Type
DOCKED: USER                           _______ _______ _______ _____ _____    ______ ____
DOCKED: ROOT
DOCKED: ATOM      1  C   UNL     1       9.500  20.747  17.993 -0.10 -0.03    +0.164 C  
DOCKED: ATOM      2  C   UNL     1       9.535  19.224  17.736 -0.21 -0.01    +0.065 C  
DOCKED: ATOM      3  C   UNL     1       8.887  19.048  16.380 -0.26 -0.02    +0.134 C  
DOCKED: ATOM      4  C   UNL     1       9.342  20.289  15.621 -0.29 -0.02    +0.140 C  
DOCKED: ATOM      5  N   UNL     1       9.489  21.336  16.635 -0.11 +0.05    -0.286 N  
DOCKED: ATOM      6  C   UNL     1       9.171  22.636  16.250 -0.23 -0.06    +0.237 C  
DOCKED: ATOM      7  O   UNL     1       8.785  22.840  15.094 -0.30 +0.08    -0.274 OA 
DOCKED: ENDROOT
DOCKED: BRANCH   1   9
DOCKED: ATOM      8  N   UNL     1      11.916  20.856  18.664 -0.07 +0.05    -0.310 N  
DOCKED: ATOM      9  C   UNL     1      10.621  21.207  18.965 -0.06 -0.04    +0.234 C  
DOCKED: ATOM     10  O   UNL     1      10.385  21.867  19.976 -0.01 +0.05    -0.274 OA 
DOCKED: ATOM     11  H   UNL     1      12.095  19.989  18.176 +0.04 -0.02    +0.149 HD 
DOCKED: BRANCH   8  12
DOCKED: ATOM     12  C   UNL     1      12.972  21.320  19.524 -0.11 -0.02    +0.139 C  
DOCKED: BRANCH  12  16
DOCKED: ATOM     13  C   UNL     1      15.812  24.031  17.691 -0.24 +0.00    -0.010 A  
DOCKED: ATOM     14  C   UNL     1      15.117  24.421  18.849 -0.10 -0.00    +0.009 A  
DOCKED: ATOM     15  C   UNL     1      14.173  23.576  19.447 -0.07 -0.00    +0.006 A  
DOCKED: ATOM     16  C   UNL     1      13.873  22.333  18.877 -0.15 +0.00    -0.030 A  
DOCKED: ATOM     17  C   UNL     1      14.548  21.949  17.716 -0.32 -0.00    +0.006 A  
DOCKED: ATOM     18  C   UNL     1      15.509  22.778  17.144 -0.23 -0.00    +0.009 A  
DOCKED: BRANCH  13  24
DOCKED: ATOM     19  C   UNL     1      15.670  27.140  16.637 -0.12 +0.02    +0.067 C  
DOCKED: ATOM     20  C   UNL     1      16.813  26.185  16.597 -0.27 +0.00    +0.053 A  
DOCKED: ATOM     21  N   UNL     1      17.987  26.648  16.025 -0.45 -0.02    -0.252 NA 
DOCKED: ATOM     22  C   UNL     1      18.900  25.708  16.056 -0.17 -0.01    +0.156 A  
DOCKED: ATOM     23  S   UNL     1      18.428  24.226  16.760 -0.33 +0.02    -0.075 S  
DOCKED: ATOM     24  C   UNL     1      16.852  24.872  17.070 -0.26 -0.00    +0.042 A  
DOCKED: ENDBRANCH  13  24
DOCKED: ENDBRANCH  12  16
DOCKED: ENDBRANCH   8  12
DOCKED: ENDBRANCH   1   9
DOCKED: BRANCH   3  25
DOCKED: ATOM     25  O   UNL     1       7.477  18.982  16.552 -0.15 +0.04    -0.390 OA 
DOCKED: ATOM     26  H   UNL     1       7.260  19.255  17.458 +0.06 -0.03    +0.210 HD 
DOCKED: ENDBRANCH   3  25
DOCKED: BRANCH   6  27
DOCKED: ATOM     27  C   UNL     1       9.326  23.820  17.252 -0.18 -0.06    +0.164 C  
DOCKED: BRANCH  27  28
DOCKED: ATOM     28  N   UNL     1       8.703  23.546  18.552 -0.03 +0.12    -0.302 N  
DOCKED: ATOM     29  C   UNL     1       7.390  23.209  18.771 -0.04 -0.10    +0.239 C  
DOCKED: ATOM     30  O   UNL     1       6.487  23.348  17.956 -0.07 +0.13    -0.273 OA 
DOCKED: ATOM     31  H   UNL     1       9.330  23.471  19.349 +0.02 -0.05    +0.150 HD 
DOCKED: BRANCH  29  32
DOCKED: ATOM     32  C   UNL     1       7.137  22.640  20.172 -0.01 -0.07    +0.251 C  
DOCKED: BRANCH  32  33
DOCKED: ATOM     33  O   UNL     1       8.224  22.902  21.053 +0.00 +0.10    -0.386 OA 
DOCKED: ATOM     34  H   UNL     1       8.989  22.424  20.685 +0.01 -0.05    +0.210 HD 
DOCKED: ENDBRANCH  32  33
DOCKED: ENDBRANCH  29  32
DOCKED: ENDBRANCH  27  28
DOCKED: BRANCH  27  35
DOCKED: ATOM     35  C   UNL     1      10.774  24.411  17.388 -0.24 +0.00    -0.011 C  
DOCKED: ATOM     36  C   UNL     1      10.796  25.839  16.800 -0.18 -0.00    +0.013 C  
DOCKED: ATOM     37  C   UNL     1      11.156  24.535  18.885 -0.09 -0.00    +0.013 C  
DOCKED: ATOM     38  C   UNL     1      11.864  23.563  16.708 -0.27 +0.00    +0.013 C  
DOCKED: ENDBRANCH  27  35
DOCKED: ENDBRANCH   6  27
DOCKED: TORSDOF 10
DOCKED: TER
DOCKED: ENDMDL
________________________________________________________________________________


    FINAL DOCKED STATE:
    ________________________


Run:   31 / 50
Time taken for this run:   0.000s

DOCKED: MODEL        31
DOCKED: USER    Run = 31
DOCKED: USER
DOCKED: USER    Estimated Free Energy of Binding    =  -4.11 kcal/mol  [=(1)+(2)+(3)-(4)]
DOCKED: USER
DOCKED: USER    (1) Final Intermolecular Energy     =  -7.09 kcal/mol
DOCKED: USER        vdW + Hbond + desolv Energy     =  -6.80 kcal/mol
DOCKED: USER        Electrostatic Energy            =  -0.29 kcal/mol
DOCKED: USER        Moving Ligand-Fixed Receptor    =  -7.09 kcal/mol
DOCKED: USER        Moving Ligand-Moving Receptor   =  +0.00 kcal/mol
DOCKED: USER    (2) Final Total Internal Energy     =  -3.88 kcal/mol
DOCKED: USER    (3) Torsional Free Energy           =  +2.98 kcal/mol
DOCKED: USER    (4) Unbound System's Energy         =  -3.88 kcal/mol
DOCKED: USER
DOCKED: USER
DOCKED: REMARK  Name = 
DOCKED: REMARK  14 active torsions:
DOCKED: REMARK  status: ('A' for Active; 'I' for Inactive)
DOCKED: REMARK    1  A    between atoms: C_1  and  C_2
DOCKED: REMARK    2  A    between atoms: C_6  and  C_7
DOCKED: REMARK    3  A    between atoms: C_10  and  C_11
DOCKED: REMARK    4  A    between atoms: C_11  and  N_12
DOCKED: REMARK    5  A    between atoms: C_13  and  C_15
DOCKED: REMARK    6  A    between atoms: C_17  and  O_18
DOCKED: REMARK    7  A    between atoms: C_21  and  C_23
DOCKED: REMARK    8  A    between atoms: C_23  and  N_24
DOCKED: REMARK    9  A    between atoms: C_23  and  C_29
DOCKED: REMARK   10  A    between atoms: C_25  and  C_27
DOCKED: REMARK   11  A    between atoms: C_27  and  O_28
DOCKED: REMARK   12  A    between atoms: C_29  and  C_30
DOCKED: REMARK   13  A    between atoms: C_29  and  C_31
DOCKED: REMARK   14  A    between atoms: C_29  and  C_32
DOCKED: REMARK                            x       y       z     vdW  Elec       q    Type
DOCKED: REMARK                         _______ _______ _______ _____ _____    ______ ____
DOCKED: USER                              x       y       z     vdW  Elec       q    Type
DOCKED: USER                           _______ _______ _______ _____ _____    ______ ____
DOCKED: ROOT
DOCKED: ATOM      1  C   UNL     1      12.993  26.468  17.873 -0.15 +0.02    +0.164 C  
DOCKED: ATOM      2  C   UNL     1      12.978  27.921  18.400 -0.14 +0.00    +0.065 C  
DOCKED: ATOM      3  C   UNL     1      11.545  28.375  18.234 -0.16 -0.05    +0.134 C  
DOCKED: ATOM      4  C   UNL     1      10.749  27.107  18.522 -0.10 -0.10    +0.140 C  
DOCKED: ATOM      5  N   UNL     1      11.603  26.001  18.081 -0.12 +0.05    -0.286 N  
DOCKED: ATOM      6  C   UNL     1      10.965  24.889  17.537 -0.17 -0.05    +0.237 C  
DOCKED: ATOM      7  O   UNL     1       9.732  24.890  17.451 -0.16 +0.14    -0.274 OA 
DOCKED: ENDROOT
DOCKED: BRANCH   1   9
DOCKED: ATOM      8  N   UNL     1      14.978  24.948  17.651 -0.08 -0.02    -0.310 N  
DOCKED: ATOM      9  C   UNL     1      14.135  25.624  18.502 -0.08 -0.00    +0.234 C  
DOCKED: ATOM     10  O   UNL     1      14.304  25.549  19.718 -0.01 +0.03    -0.274 OA 
DOCKED: ATOM     11  H   UNL     1      14.622  24.607  16.768 +0.08 +0.03    +0.149 HD 
DOCKED: BRANCH   8  12
DOCKED: ATOM     12  C   UNL     1      16.073  24.205  18.214 -0.17 -0.01    +0.139 C  
DOCKED: BRANCH  12  16
DOCKED: ATOM     13  C   UNL     1      19.760  25.078  16.112 -0.17 +0.00    -0.010 A  
DOCKED: ATOM     14  C   UNL     1      19.706  24.003  17.015 -0.23 -0.00    +0.009 A  
DOCKED: ATOM     15  C   UNL     1      18.535  23.715  17.729 -0.15 -0.00    +0.006 A  
DOCKED: ATOM     16  C   UNL     1      17.400  24.521  17.585 -0.23 +0.00    -0.030 A  
DOCKED: ATOM     17  C   UNL     1      17.455  25.602  16.703 -0.28 -0.00    +0.006 A  
DOCKED: ATOM     18  C   UNL     1      18.610  25.865  15.970 -0.25 -0.00    +0.009 A  
DOCKED: BRANCH  13  24
DOCKED: ATOM     19  C   UNL     1      21.127  27.962  15.331 -0.11 -0.01    +0.067 C  
DOCKED: ATOM     20  C   UNL     1      21.547  26.586  14.941 -0.14 -0.01    +0.053 A  
DOCKED: ATOM     21  N   UNL     1      22.660  26.487  14.122 -0.10 +0.05    -0.252 NA 
DOCKED: ATOM     22  C   UNL     1      22.911  25.227  13.861 -0.17 -0.05    +0.156 A  
DOCKED: ATOM     23  S   UNL     1      21.851  24.089  14.563 -0.40 +0.03    -0.075 S  
DOCKED: ATOM     24  C   UNL     1      20.957  25.374  15.303 -0.20 -0.01    +0.042 A  
DOCKED: ENDBRANCH  13  24
DOCKED: ENDBRANCH  12  16
DOCKED: ENDBRANCH   8  12
DOCKED: ENDBRANCH   1   9
DOCKED: BRANCH   3  25
DOCKED: ATOM     25  O   UNL     1      11.368  28.859  16.908 -0.56 -0.02    -0.390 OA 
DOCKED: ATOM     26  H   UNL     1      10.421  28.836  16.693 -0.42 -0.34    +0.210 HD 
DOCKED: ENDBRANCH   3  25
DOCKED: BRANCH   6  27
DOCKED: ATOM     27  C   UNL     1      11.789  23.652  17.070 -0.18 -0.00    +0.164 C  
DOCKED: BRANCH  27  28
DOCKED: ATOM     28  N   UNL     1      12.377  22.908  18.190 -0.05 +0.03    -0.302 N  
DOCKED: ATOM     29  C   UNL     1      13.620  22.325  18.217 -0.16 -0.03    +0.239 C  
DOCKED: ATOM     30  O   UNL     1      14.312  22.106  17.231 -0.28 +0.04    -0.273 OA 
DOCKED: ATOM     31  H   UNL     1      11.870  22.939  19.071 +0.03 -0.02    +0.150 HD 
DOCKED: BRANCH  29  32
DOCKED: ATOM     32  C   UNL     1      14.078  21.945  19.630 -0.09 -0.03    +0.251 C  
DOCKED: BRANCH  32  33
DOCKED: ATOM     33  O   UNL     1      13.407  22.708  20.627 -0.00 +0.06    -0.386 OA 
DOCKED: ATOM     34  H   UNL     1      13.519  23.642  20.370 +0.02 -0.03    +0.210 HD 
DOCKED: ENDBRANCH  32  33
DOCKED: ENDBRANCH  29  32
DOCKED: ENDBRANCH  27  28
DOCKED: BRANCH  27  35
DOCKED: ATOM     35  C   UNL     1      11.080  22.716  16.027 -0.36 +0.00    -0.011 C  
DOCKED: ATOM     36  C   UNL     1      10.435  23.584  14.924 -0.42 +0.00    +0.013 C  
DOCKED: ATOM     37  C   UNL     1      12.128  21.810  15.332 -0.38 +0.00    +0.013 C  
DOCKED: ATOM     38  C   UNL     1      10.013  21.792  16.639 -0.26 -0.00    +0.013 C  
DOCKED: ENDBRANCH  27  35
DOCKED: ENDBRANCH   6  27
DOCKED: TORSDOF 10
DOCKED: TER
DOCKED: ENDMDL
________________________________________________________________________________


    FINAL DOCKED STATE:
    ________________________


Run:   32 / 50
Time taken for this run:   0.000s

DOCKED: MODEL        32
DOCKED: USER    Run = 32
DOCKED: USER
DOCKED: USER    Estimated Free Energy of Binding    =  -3.12 kcal/mol  [=(1)+(2)+(3)-(4)]
DOCKED: USER
DOCKED: USER    (1) Final Intermolecular Energy     =  -6.11 kcal/mol
DOCKED: USER        vdW + Hbond + desolv Energy     =  -6.08 kcal/mol
DOCKED: USER        Electrostatic Energy            =  -0.03 kcal/mol
DOCKED: USER        Moving Ligand-Fixed Receptor    =  -6.11 kcal/mol
DOCKED: USER        Moving Ligand-Moving Receptor   =  +0.00 kcal/mol
DOCKED: USER    (2) Final Total Internal Energy     =  -4.38 kcal/mol
DOCKED: USER    (3) Torsional Free Energy           =  +2.98 kcal/mol
DOCKED: USER    (4) Unbound System's Energy         =  -4.38 kcal/mol
DOCKED: USER
DOCKED: USER
DOCKED: REMARK  Name = 
DOCKED: REMARK  14 active torsions:
DOCKED: REMARK  status: ('A' for Active; 'I' for Inactive)
DOCKED: REMARK    1  A    between atoms: C_1  and  C_2
DOCKED: REMARK    2  A    between atoms: C_6  and  C_7
DOCKED: REMARK    3  A    between atoms: C_10  and  C_11
DOCKED: REMARK    4  A    between atoms: C_11  and  N_12
DOCKED: REMARK    5  A    between atoms: C_13  and  C_15
DOCKED: REMARK    6  A    between atoms: C_17  and  O_18
DOCKED: REMARK    7  A    between atoms: C_21  and  C_23
DOCKED: REMARK    8  A    between atoms: C_23  and  N_24
DOCKED: REMARK    9  A    between atoms: C_23  and  C_29
DOCKED: REMARK   10  A    between atoms: C_25  and  C_27
DOCKED: REMARK   11  A    between atoms: C_27  and  O_28
DOCKED: REMARK   12  A    between atoms: C_29  and  C_30
DOCKED: REMARK   13  A    between atoms: C_29  and  C_31
DOCKED: REMARK   14  A    between atoms: C_29  and  C_32
DOCKED: REMARK                            x       y       z     vdW  Elec       q    Type
DOCKED: REMARK                         _______ _______ _______ _____ _____    ______ ____
DOCKED: USER                              x       y       z     vdW  Elec       q    Type
DOCKED: USER                           _______ _______ _______ _____ _____    ______ ____
DOCKED: ROOT
DOCKED: ATOM      1  C   UNL     1       6.855  22.320  16.109 -0.24 -0.06    +0.164 C  
DOCKED: ATOM      2  C   UNL     1       5.662  23.184  15.643 -0.25 -0.03    +0.065 C  
DOCKED: ATOM      3  C   UNL     1       4.449  22.542  16.280 -0.16 -0.05    +0.134 C  
DOCKED: ATOM      4  C   UNL     1       4.983  22.062  17.624 -0.06 -0.04    +0.140 C  
DOCKED: ATOM      5  N   UNL     1       6.395  21.744  17.394 -0.05 +0.08    -0.286 N  
DOCKED: ATOM      6  C   UNL     1       6.926  20.675  18.111 -0.04 -0.05    +0.237 C  
DOCKED: ATOM      7  O   UNL     1       6.194  20.056  18.892 -0.02 +0.05    -0.274 OA 
DOCKED: ENDROOT
DOCKED: BRANCH   1   9
DOCKED: ATOM      8  N   UNL     1       8.913  23.163  14.946 -0.11 +0.08    -0.310 N  
DOCKED: ATOM      9  C   UNL     1       8.190  23.111  16.116 -0.24 -0.09    +0.234 C  
DOCKED: ATOM     10  O   UNL     1       8.609  23.687  17.120 -0.16 +0.12    -0.274 OA 
DOCKED: ATOM     11  H   UNL     1       8.875  22.382  14.306 -0.24 -0.04    +0.149 HD 
DOCKED: BRANCH   8  12
DOCKED: ATOM     12  C   UNL     1      10.125  23.937  14.920 -0.31 -0.00    +0.139 C  
DOCKED: BRANCH  12  16
DOCKED: ATOM     13  C   UNL     1      13.014  22.173  17.626 -0.25 +0.00    -0.010 A  
DOCKED: ATOM     14  C   UNL     1      12.698  23.539  17.730 -0.17 -0.00    +0.009 A  
DOCKED: ATOM     15  C   UNL     1      11.788  24.142  16.851 -0.20 +0.00    +0.006 A  
DOCKED: ATOM     16  C   UNL     1      11.201  23.400  15.820 -0.29 -0.00    -0.030 A  
DOCKED: ATOM     17  C   UNL     1      11.526  22.047  15.700 -0.34 +0.00    +0.006 A  
DOCKED: ATOM     18  C   UNL     1      12.405  21.444  16.597 -0.34 -0.00    +0.009 A  
DOCKED: BRANCH  13  24
DOCKED: ATOM     19  C   UNL     1      16.130  22.849  18.418 -0.21 -0.01    +0.067 C  
DOCKED: ATOM     20  C   UNL     1      15.252  21.750  18.909 -0.14 -0.01    +0.053 A  
DOCKED: ATOM     21  N   UNL     1      15.814  20.867  19.817 -0.36 -0.02    -0.252 NA 
DOCKED: ATOM     22  C   UNL     1      14.934  19.957  20.159 -0.15 -0.01    +0.156 A  
DOCKED: ATOM     23  S   UNL     1      13.397  20.089  19.429 -0.15 +0.01    -0.075 S  
DOCKED: ATOM     24  C   UNL     1      13.923  21.496  18.569 -0.21 -0.01    +0.042 A  
DOCKED: ENDBRANCH  13  24
DOCKED: ENDBRANCH  12  16
DOCKED: ENDBRANCH   8  12
DOCKED: ENDBRANCH   1   9
DOCKED: BRANCH   3  25
DOCKED: ATOM     25  O   UNL     1       4.001  21.481  15.445 -0.11 +0.10    -0.390 OA 
DOCKED: ATOM     26  H   UNL     1       3.894  20.683  15.986 +0.06 -0.04    +0.210 HD 
DOCKED: ENDBRANCH   3  25
DOCKED: BRANCH   6  27
DOCKED: ATOM     27  C   UNL     1       8.426  20.282  17.954 -0.09 -0.03    +0.164 C  
DOCKED: BRANCH  27  28
DOCKED: ATOM     28  N   UNL     1       9.103  20.109  19.244 -0.02 +0.05    -0.302 N  
DOCKED: ATOM     29  C   UNL     1       9.972  20.994  19.834 -0.03 -0.04    +0.239 C  
DOCKED: ATOM     30  O   UNL     1      10.518  21.927  19.258 -0.02 +0.05    -0.273 OA 
DOCKED: ATOM     31  H   UNL     1       8.801  19.322  19.814 +0.02 -0.02    +0.150 HD 
DOCKED: BRANCH  29  32
DOCKED: ATOM     32  C   UNL     1      10.222  20.699  21.316 -0.01 -0.04    +0.251 C  
DOCKED: BRANCH  32  33
DOCKED: ATOM     33  O   UNL     1       9.929  19.345  21.644 -0.00 +0.05    -0.386 OA 
DOCKED: ATOM     34  H   UNL     1      10.790  18.915  21.798 +0.01 -0.03    +0.210 HD 
DOCKED: ENDBRANCH  32  33
DOCKED: ENDBRANCH  29  32
DOCKED: ENDBRANCH  27  28
DOCKED: BRANCH  27  35
DOCKED: ATOM     35  C   UNL     1       8.721  19.109  16.953 -0.30 +0.00    -0.011 C  
DOCKED: ATOM     36  C   UNL     1       9.646  18.080  17.639 -0.24 -0.00    +0.013 C  
DOCKED: ATOM     37  C   UNL     1       7.405  18.368  16.606 -0.26 -0.00    +0.013 C  
DOCKED: ATOM     38  C   UNL     1       9.354  19.560  15.626 -0.43 -0.00    +0.013 C  
DOCKED: ENDBRANCH  27  35
DOCKED: ENDBRANCH   6  27
DOCKED: TORSDOF 10
DOCKED: TER
DOCKED: ENDMDL
________________________________________________________________________________


    FINAL DOCKED STATE:
    ________________________


Run:   33 / 50
Time taken for this run:   0.000s

DOCKED: MODEL        33
DOCKED: USER    Run = 33
DOCKED: USER
DOCKED: USER    Estimated Free Energy of Binding    =  -2.76 kcal/mol  [=(1)+(2)+(3)-(4)]
DOCKED: USER
DOCKED: USER    (1) Final Intermolecular Energy     =  -5.75 kcal/mol
DOCKED: USER        vdW + Hbond + desolv Energy     =  -5.58 kcal/mol
DOCKED: USER        Electrostatic Energy            =  -0.17 kcal/mol
DOCKED: USER        Moving Ligand-Fixed Receptor    =  -5.75 kcal/mol
DOCKED: USER        Moving Ligand-Moving Receptor   =  +0.00 kcal/mol
DOCKED: USER    (2) Final Total Internal Energy     =  -4.93 kcal/mol
DOCKED: USER    (3) Torsional Free Energy           =  +2.98 kcal/mol
DOCKED: USER    (4) Unbound System's Energy         =  -4.93 kcal/mol
DOCKED: USER
DOCKED: USER
DOCKED: REMARK  Name = 
DOCKED: REMARK  14 active torsions:
DOCKED: REMARK  status: ('A' for Active; 'I' for Inactive)
DOCKED: REMARK    1  A    between atoms: C_1  and  C_2
DOCKED: REMARK    2  A    between atoms: C_6  and  C_7
DOCKED: REMARK    3  A    between atoms: C_10  and  C_11
DOCKED: REMARK    4  A    between atoms: C_11  and  N_12
DOCKED: REMARK    5  A    between atoms: C_13  and  C_15
DOCKED: REMARK    6  A    between atoms: C_17  and  O_18
DOCKED: REMARK    7  A    between atoms: C_21  and  C_23
DOCKED: REMARK    8  A    between atoms: C_23  and  N_24
DOCKED: REMARK    9  A    between atoms: C_23  and  C_29
DOCKED: REMARK   10  A    between atoms: C_25  and  C_27
DOCKED: REMARK   11  A    between atoms: C_27  and  O_28
DOCKED: REMARK   12  A    between atoms: C_29  and  C_30
DOCKED: REMARK   13  A    between atoms: C_29  and  C_31
DOCKED: REMARK   14  A    between atoms: C_29  and  C_32
DOCKED: REMARK                            x       y       z     vdW  Elec       q    Type
DOCKED: REMARK                         _______ _______ _______ _____ _____    ______ ____
DOCKED: USER                              x       y       z     vdW  Elec       q    Type
DOCKED: USER                           _______ _______ _______ _____ _____    ______ ____
DOCKED: ROOT
DOCKED: ATOM      1  C   UNL     1      10.571  20.712  17.743 -0.15 -0.03    +0.164 C  
DOCKED: ATOM      2  C   UNL     1       9.798  19.386  17.559 -0.23 -0.01    +0.065 C  
DOCKED: ATOM      3  C   UNL     1       9.822  19.131  16.068 -0.34 -0.02    +0.134 C  
DOCKED: ATOM      4  C   UNL     1      11.192  19.656  15.654 -0.37 -0.02    +0.140 C  
DOCKED: ATOM      5  N   UNL     1      11.487  20.752  16.580 -0.16 +0.04    -0.286 N  
DOCKED: ATOM      6  C   UNL     1      12.204  21.832  16.072 -0.29 -0.01    +0.237 C  
DOCKED: ATOM      7  O   UNL     1      12.550  21.815  14.886 -0.27 -0.03    -0.274 OA 
DOCKED: ENDROOT
DOCKED: BRANCH   1   9
DOCKED: ATOM      8  N   UNL     1      12.090  19.864  19.552 -0.07 +0.04    -0.310 N  
DOCKED: ATOM      9  C   UNL     1      11.200  20.836  19.157 -0.08 -0.04    +0.234 C  
DOCKED: ATOM     10  O   UNL     1      10.932  21.766  19.917 -0.02 +0.05    -0.274 OA 
DOCKED: ATOM     11  H   UNL     1      11.977  18.920  19.209 +0.03 -0.02    +0.149 HD 
DOCKED: BRANCH   8  12
DOCKED: ATOM     12  C   UNL     1      12.724  19.993  20.837 -0.08 -0.02    +0.139 C  
DOCKED: BRANCH  12  16
DOCKED: ATOM     13  C   UNL     1      16.978  19.173  20.834 -0.18 +0.00    -0.010 A  
DOCKED: ATOM     14  C   UNL     1      16.477  20.269  21.555 -0.09 -0.00    +0.009 A  
DOCKED: ATOM     15  C   UNL     1      15.109  20.574  21.552 -0.07 -0.00    +0.006 A  
DOCKED: ATOM     16  C   UNL     1      14.214  19.810  20.793 -0.12 +0.00    -0.030 A  
DOCKED: ATOM     17  C   UNL     1      14.711  18.731  20.059 -0.18 -0.00    +0.006 A  
DOCKED: ATOM     18  C   UNL     1      16.066  18.412  20.092 -0.30 -0.00    +0.009 A  
DOCKED: BRANCH  13  24
DOCKED: ATOM     19  C   UNL     1      19.674  21.029  20.547 -0.10 -0.00    +0.067 C  
DOCKED: ATOM     20  C   UNL     1      19.563  19.553  20.724 -0.13 -0.01    +0.053 A  
DOCKED: ATOM     21  N   UNL     1      20.752  18.842  20.760 -0.08 +0.05    -0.252 NA 
DOCKED: ATOM     22  C   UNL     1      20.504  17.565  20.917 -0.08 -0.04    +0.156 A  
DOCKED: ATOM     23  S   UNL     1      18.857  17.128  21.030 -0.16 +0.02    -0.075 S  
DOCKED: ATOM     24  C   UNL     1      18.403  18.791  20.861 -0.16 -0.01    +0.042 A  
DOCKED: ENDBRANCH  13  24
DOCKED: ENDBRANCH  12  16
DOCKED: ENDBRANCH   8  12
DOCKED: ENDBRANCH   1   9
DOCKED: BRANCH   3  25
DOCKED: ATOM     25  O   UNL     1       8.746  19.837  15.465 -0.20 +0.06    -0.390 OA 
DOCKED: ATOM     26  H   UNL     1       8.225  19.215  14.932 +0.10 -0.03    +0.210 HD 
DOCKED: ENDBRANCH   3  25
DOCKED: BRANCH   6  27
DOCKED: ATOM     27  C   UNL     1      12.591  23.030  16.991 -0.19 +0.00    +0.164 C  
DOCKED: BRANCH  27  28
DOCKED: ATOM     28  N   UNL     1      11.441  23.579  17.719 -0.06 +0.04    -0.302 N  
DOCKED: ATOM     29  C   UNL     1      10.778  24.747  17.434 -0.17 -0.05    +0.239 C  
DOCKED: ATOM     30  O   UNL     1      11.207  25.634  16.707 -0.42 -0.04    -0.273 OA 
DOCKED: ATOM     31  H   UNL     1      11.015  22.974  18.417 +0.04 -0.03    +0.150 HD 
DOCKED: BRANCH  29  32
DOCKED: ATOM     32  C   UNL     1       9.421  24.859  18.136 -0.12 -0.14    +0.251 C  
DOCKED: BRANCH  32  33
DOCKED: ATOM     33  O   UNL     1       9.208  23.789  19.050 -0.02 +0.14    -0.386 OA 
DOCKED: ATOM     34  H   UNL     1      10.060  23.651  19.505 +0.03 -0.06    +0.210 HD 
DOCKED: ENDBRANCH  32  33
DOCKED: ENDBRANCH  29  32
DOCKED: ENDBRANCH  27  28
DOCKED: BRANCH  27  35
DOCKED: ATOM     35  C   UNL     1      13.840  22.803  17.915 -0.26 +0.00    -0.011 C  
DOCKED: ATOM     36  C   UNL     1      14.373  21.369  17.702 -0.31 -0.00    +0.013 C  
DOCKED: ATOM     37  C   UNL     1      14.980  23.771  17.510 -0.23 -0.00    +0.013 C  
DOCKED: ATOM     38  C   UNL     1      13.562  23.026  19.412 -0.09 -0.00    +0.013 C  
DOCKED: ENDBRANCH  27  35
DOCKED: ENDBRANCH   6  27
DOCKED: TORSDOF 10
DOCKED: TER
DOCKED: ENDMDL
________________________________________________________________________________


    FINAL DOCKED STATE:
    ________________________


Run:   34 / 50
Time taken for this run:   0.000s

DOCKED: MODEL        34
DOCKED: USER    Run = 34
DOCKED: USER
DOCKED: USER    Estimated Free Energy of Binding    =  -3.07 kcal/mol  [=(1)+(2)+(3)-(4)]
DOCKED: USER
DOCKED: USER    (1) Final Intermolecular Energy     =  -6.05 kcal/mol
DOCKED: USER        vdW + Hbond + desolv Energy     =  -6.02 kcal/mol
DOCKED: USER        Electrostatic Energy            =  -0.03 kcal/mol
DOCKED: USER        Moving Ligand-Fixed Receptor    =  -6.05 kcal/mol
DOCKED: USER        Moving Ligand-Moving Receptor   =  +0.00 kcal/mol
DOCKED: USER    (2) Final Total Internal Energy     =  -4.97 kcal/mol
DOCKED: USER    (3) Torsional Free Energy           =  +2.98 kcal/mol
DOCKED: USER    (4) Unbound System's Energy         =  -4.97 kcal/mol
DOCKED: USER
DOCKED: USER
DOCKED: REMARK  Name = 
DOCKED: REMARK  14 active torsions:
DOCKED: REMARK  status: ('A' for Active; 'I' for Inactive)
DOCKED: REMARK    1  A    between atoms: C_1  and  C_2
DOCKED: REMARK    2  A    between atoms: C_6  and  C_7
DOCKED: REMARK    3  A    between atoms: C_10  and  C_11
DOCKED: REMARK    4  A    between atoms: C_11  and  N_12
DOCKED: REMARK    5  A    between atoms: C_13  and  C_15
DOCKED: REMARK    6  A    between atoms: C_17  and  O_18
DOCKED: REMARK    7  A    between atoms: C_21  and  C_23
DOCKED: REMARK    8  A    between atoms: C_23  and  N_24
DOCKED: REMARK    9  A    between atoms: C_23  and  C_29
DOCKED: REMARK   10  A    between atoms: C_25  and  C_27
DOCKED: REMARK   11  A    between atoms: C_27  and  O_28
DOCKED: REMARK   12  A    between atoms: C_29  and  C_30
DOCKED: REMARK   13  A    between atoms: C_29  and  C_31
DOCKED: REMARK   14  A    between atoms: C_29  and  C_32
DOCKED: REMARK                            x       y       z     vdW  Elec       q    Type
DOCKED: REMARK                         _______ _______ _______ _____ _____    ______ ____
DOCKED: USER                              x       y       z     vdW  Elec       q    Type
DOCKED: USER                           _______ _______ _______ _____ _____    ______ ____
DOCKED: ROOT
DOCKED: ATOM      1  C   UNL     1      13.467  22.338  17.144 -0.27 -0.01    +0.164 C  
DOCKED: ATOM      2  C   UNL     1      14.906  21.774  17.140 -0.28 -0.02    +0.065 C  
DOCKED: ATOM      3  C   UNL     1      15.525  22.290  18.420 -0.13 -0.02    +0.134 C  
DOCKED: ATOM      4  C   UNL     1      14.355  22.275  19.397 -0.12 -0.02    +0.140 C  
DOCKED: ATOM      5  N   UNL     1      13.162  22.521  18.582 -0.06 +0.03    -0.286 N  
DOCKED: ATOM      6  C   UNL     1      12.138  23.260  19.170 -0.04 -0.04    +0.237 C  
DOCKED: ATOM      7  O   UNL     1      12.282  23.666  20.328 -0.01 +0.05    -0.274 OA 
DOCKED: ENDROOT
DOCKED: BRANCH   1   9
DOCKED: ATOM      8  N   UNL     1      11.572  20.700  16.988 -0.12 +0.04    -0.310 N  
DOCKED: ATOM      9  C   UNL     1      12.490  21.467  16.309 -0.29 -0.02    +0.234 C  
DOCKED: ATOM     10  O   UNL     1      12.512  21.450  15.079 -0.37 -0.00    -0.274 OA 
DOCKED: ATOM     11  H   UNL     1      11.811  20.331  17.898 +0.05 -0.02    +0.149 HD 
DOCKED: BRANCH   8  12
DOCKED: ATOM     12  C   UNL     1      10.624  19.929  16.229 -0.34 -0.02    +0.139 C  
DOCKED: BRANCH  12  16
DOCKED: ATOM     13  C   UNL     1       6.897  22.119  15.932 -0.27 +0.00    -0.010 A  
DOCKED: ATOM     14  C   UNL     1       6.884  20.759  16.285 -0.20 -0.00    +0.009 A  
DOCKED: ATOM     15  C   UNL     1       8.072  20.019  16.362 -0.28 -0.00    +0.006 A  
DOCKED: ATOM     16  C   UNL     1       9.300  20.615  16.049 -0.31 +0.00    -0.030 A  
DOCKED: ATOM     17  C   UNL     1       9.315  21.961  15.679 -0.29 -0.00    +0.006 A  
DOCKED: ATOM     18  C   UNL     1       8.135  22.701  15.636 -0.28 -0.00    +0.009 A  
DOCKED: BRANCH  13  24
DOCKED: ATOM     19  C   UNL     1       4.152  21.751  14.164 -0.37 -0.02    +0.067 C  
DOCKED: ATOM     20  C   UNL     1       4.503  22.817  15.144 -0.29 -0.02    +0.053 A  
DOCKED: ATOM     21  N   UNL     1       3.560  23.812  15.342 -0.15 +0.10    -0.252 NA 
DOCKED: ATOM     22  C   UNL     1       4.001  24.677  16.223 -0.16 -0.09    +0.156 A  
DOCKED: ATOM     23  S   UNL     1       5.551  24.369  16.867 -0.27 +0.06    -0.075 S  
DOCKED: ATOM     24  C   UNL     1       5.672  22.940  15.897 -0.25 -0.02    +0.042 A  
DOCKED: ENDBRANCH  13  24
DOCKED: ENDBRANCH  12  16
DOCKED: ENDBRANCH   8  12
DOCKED: ENDBRANCH   1   9
DOCKED: BRANCH   3  25
DOCKED: ATOM     25  O   UNL     1      16.041  23.595  18.185 -0.12 +0.04    -0.390 OA 
DOCKED: ATOM     26  H   UNL     1      16.083  24.070  19.031 +0.05 -0.02    +0.210 HD 
DOCKED: ENDBRANCH   3  25
DOCKED: BRANCH   6  27
DOCKED: ATOM     27  C   UNL     1      10.819  23.545  18.390 -0.07 -0.03    +0.164 C  
DOCKED: BRANCH  27  28
DOCKED: ATOM     28  N   UNL     1       9.637  22.986  19.055 -0.01 +0.08    -0.302 N  
DOCKED: ATOM     29  C   UNL     1       9.520  21.724  19.585 -0.02 -0.05    +0.239 C  
DOCKED: ATOM     30  O   UNL     1      10.280  20.793  19.348 -0.04 +0.05    -0.273 OA 
DOCKED: ATOM     31  H   UNL     1       8.880  23.635  19.258 +0.02 -0.06    +0.150 HD 
DOCKED: BRANCH  29  32
DOCKED: ATOM     32  C   UNL     1       8.314  21.568  20.517 -0.00 -0.05    +0.251 C  
DOCKED: BRANCH  32  33
DOCKED: ATOM     33  O   UNL     1       7.443  22.693  20.448 +0.00 +0.11    -0.386 OA 
DOCKED: ATOM     34  H   UNL     1       6.542  22.329  20.368 +0.01 -0.06    +0.210 HD 
DOCKED: ENDBRANCH  32  33
DOCKED: ENDBRANCH  29  32
DOCKED: ENDBRANCH  27  28
DOCKED: BRANCH  27  35
DOCKED: ATOM     35  C   UNL     1      10.608  25.032  17.931 -0.20 +0.00    -0.011 C  
DOCKED: ATOM     36  C   UNL     1      11.864  25.855  18.293 -0.18 -0.00    +0.013 C  
DOCKED: ATOM     37  C   UNL     1      10.460  25.092  16.389 -0.22 -0.00    +0.013 C  
DOCKED: ATOM     38  C   UNL     1       9.365  25.705  18.536 -0.12 -0.01    +0.013 C  
DOCKED: ENDBRANCH  27  35
DOCKED: ENDBRANCH   6  27
DOCKED: TORSDOF 10
DOCKED: TER
DOCKED: ENDMDL
________________________________________________________________________________


    FINAL DOCKED STATE:
    ________________________


Run:   35 / 50
Time taken for this run:   0.000s

DOCKED: MODEL        35
DOCKED: USER    Run = 35
DOCKED: USER
DOCKED: USER    Estimated Free Energy of Binding    =  -3.09 kcal/mol  [=(1)+(2)+(3)-(4)]
DOCKED: USER
DOCKED: USER    (1) Final Intermolecular Energy     =  -6.07 kcal/mol
DOCKED: USER        vdW + Hbond + desolv Energy     =  -5.91 kcal/mol
DOCKED: USER        Electrostatic Energy            =  -0.16 kcal/mol
DOCKED: USER        Moving Ligand-Fixed Receptor    =  -6.07 kcal/mol
DOCKED: USER        Moving Ligand-Moving Receptor   =  +0.00 kcal/mol
DOCKED: USER    (2) Final Total Internal Energy     =  -4.70 kcal/mol
DOCKED: USER    (3) Torsional Free Energy           =  +2.98 kcal/mol
DOCKED: USER    (4) Unbound System's Energy         =  -4.70 kcal/mol
DOCKED: USER
DOCKED: USER
DOCKED: REMARK  Name = 
DOCKED: REMARK  14 active torsions:
DOCKED: REMARK  status: ('A' for Active; 'I' for Inactive)
DOCKED: REMARK    1  A    between atoms: C_1  and  C_2
DOCKED: REMARK    2  A    between atoms: C_6  and  C_7
DOCKED: REMARK    3  A    between atoms: C_10  and  C_11
DOCKED: REMARK    4  A    between atoms: C_11  and  N_12
DOCKED: REMARK    5  A    between atoms: C_13  and  C_15
DOCKED: REMARK    6  A    between atoms: C_17  and  O_18
DOCKED: REMARK    7  A    between atoms: C_21  and  C_23
DOCKED: REMARK    8  A    between atoms: C_23  and  N_24
DOCKED: REMARK    9  A    between atoms: C_23  and  C_29
DOCKED: REMARK   10  A    between atoms: C_25  and  C_27
DOCKED: REMARK   11  A    between atoms: C_27  and  O_28
DOCKED: REMARK   12  A    between atoms: C_29  and  C_30
DOCKED: REMARK   13  A    between atoms: C_29  and  C_31
DOCKED: REMARK   14  A    between atoms: C_29  and  C_32
DOCKED: REMARK                            x       y       z     vdW  Elec       q    Type
DOCKED: REMARK                         _______ _______ _______ _____ _____    ______ ____
DOCKED: USER                              x       y       z     vdW  Elec       q    Type
DOCKED: USER                           _______ _______ _______ _____ _____    ______ ____
DOCKED: ROOT
DOCKED: ATOM      1  C   UNL     1      10.571  20.730  17.769 -0.14 -0.03    +0.164 C  
DOCKED: ATOM      2  C   UNL     1       9.685  19.481  17.566 -0.22 -0.01    +0.065 C  
DOCKED: ATOM      3  C   UNL     1       9.635  19.285  16.067 -0.35 -0.02    +0.134 C  
DOCKED: ATOM      4  C   UNL     1      11.028  19.712  15.619 -0.39 -0.02    +0.140 C  
DOCKED: ATOM      5  N   UNL     1      11.446  20.742  16.574 -0.16 +0.04    -0.286 N  
DOCKED: ATOM      6  C   UNL     1      12.233  21.779  16.079 -0.29 -0.01    +0.237 C  
DOCKED: ATOM      7  O   UNL     1      12.533  21.782  14.880 -0.29 -0.03    -0.274 OA 
DOCKED: ENDROOT
DOCKED: BRANCH   1   9
DOCKED: ATOM      8  N   UNL     1      11.772  19.560  19.637 -0.07 +0.04    -0.310 N  
DOCKED: ATOM      9  C   UNL     1      11.259  20.744  19.161 -0.08 -0.04    +0.234 C  
DOCKED: ATOM     10  O   UNL     1      11.360  21.769  19.835 -0.02 +0.05    -0.274 OA 
DOCKED: ATOM     11  H   UNL     1      11.325  18.689  19.383 +0.02 -0.02    +0.149 HD 
DOCKED: BRANCH   8  12
DOCKED: ATOM     12  C   UNL     1      12.460  19.566  20.901 -0.08 -0.02    +0.139 C  
DOCKED: BRANCH  12  16
DOCKED: ATOM     13  C   UNL     1      16.253  17.494  20.600 -0.24 +0.00    -0.010 A  
DOCKED: ATOM     14  C   UNL     1      15.052  16.765  20.577 -0.19 -0.00    +0.009 A  
DOCKED: ATOM     15  C   UNL     1      13.812  17.406  20.700 -0.12 -0.00    +0.006 A  
DOCKED: ATOM     16  C   UNL     1      13.746  18.792  20.888 -0.13 +0.00    -0.030 A  
DOCKED: ATOM     17  C   UNL     1      14.938  19.518  20.931 -0.14 -0.00    +0.006 A  
DOCKED: ATOM     18  C   UNL     1      16.167  18.881  20.775 -0.20 -0.00    +0.009 A  
DOCKED: BRANCH  13  24
DOCKED: ATOM     19  C   UNL     1      17.054  14.674  19.116 -0.31 -0.01    +0.067 C  
DOCKED: ATOM     20  C   UNL     1      17.936  15.655  19.809 -0.23 -0.01    +0.053 A  
DOCKED: ATOM     21  N   UNL     1      19.286  15.348  19.860 -0.13 +0.08    -0.252 NA 
DOCKED: ATOM     22  C   UNL     1      19.936  16.292  20.495 -0.06 -0.05    +0.156 A  
DOCKED: ATOM     23  S   UNL     1      18.995  17.594  21.071 -0.16 +0.02    -0.075 S  
DOCKED: ATOM     24  C   UNL     1      17.571  16.858  20.417 -0.21 -0.01    +0.042 A  
DOCKED: ENDBRANCH  13  24
DOCKED: ENDBRANCH  12  16
DOCKED: ENDBRANCH   8  12
DOCKED: ENDBRANCH   1   9
DOCKED: BRANCH   3  25
DOCKED: ATOM     25  O   UNL     1       8.600  20.101  15.532 -0.21 +0.06    -0.390 OA 
DOCKED: ATOM     26  H   UNL     1       8.220  20.632  16.250 +0.09 -0.04    +0.210 HD 
DOCKED: ENDBRANCH   3  25
DOCKED: BRANCH   6  27
DOCKED: ATOM     27  C   UNL     1      12.750  22.903  17.027 -0.20 +0.00    +0.164 C  
DOCKED: BRANCH  27  28
DOCKED: ATOM     28  N   UNL     1      11.674  23.530  17.803 -0.06 +0.03    -0.302 N  
DOCKED: ATOM     29  C   UNL     1      10.897  24.591  17.408 -0.17 -0.04    +0.239 C  
DOCKED: ATOM     30  O   UNL     1      11.158  25.340  16.475 -0.36 -0.05    -0.273 OA 
DOCKED: ATOM     31  H   UNL     1      11.391  23.052  18.655 +0.04 -0.03    +0.150 HD 
DOCKED: BRANCH  29  32
DOCKED: ATOM     32  C   UNL     1       9.642  24.775  18.269 -0.11 -0.13    +0.251 C  
DOCKED: BRANCH  32  33
DOCKED: ATOM     33  O   UNL     1       9.323  23.595  18.997 -0.01 +0.13    -0.386 OA 
DOCKED: ATOM     34  H   UNL     1      10.046  23.473  19.640 +0.03 -0.06    +0.210 HD 
DOCKED: ENDBRANCH  32  33
DOCKED: ENDBRANCH  29  32
DOCKED: ENDBRANCH  27  28
DOCKED: BRANCH  27  35
DOCKED: ATOM     35  C   UNL     1      13.993  22.529  17.910 -0.29 +0.00    -0.011 C  
DOCKED: ATOM     36  C   UNL     1      14.157  20.993  17.929 -0.12 -0.00    +0.013 C  
DOCKED: ATOM     37  C   UNL     1      15.284  23.110  17.279 -0.27 -0.00    +0.013 C  
DOCKED: ATOM     38  C   UNL     1      13.916  23.051  19.355 -0.10 -0.00    +0.013 C  
DOCKED: ENDBRANCH  27  35
DOCKED: ENDBRANCH   6  27
DOCKED: TORSDOF 10
DOCKED: TER
DOCKED: ENDMDL
________________________________________________________________________________


    FINAL DOCKED STATE:
    ________________________


Run:   36 / 50
Time taken for this run:   0.000s

DOCKED: MODEL        36
DOCKED: USER    Run = 36
DOCKED: USER
DOCKED: USER    Estimated Free Energy of Binding    =  -3.87 kcal/mol  [=(1)+(2)+(3)-(4)]
DOCKED: USER
DOCKED: USER    (1) Final Intermolecular Energy     =  -6.86 kcal/mol
DOCKED: USER        vdW + Hbond + desolv Energy     =  -6.67 kcal/mol
DOCKED: USER        Electrostatic Energy            =  -0.19 kcal/mol
DOCKED: USER        Moving Ligand-Fixed Receptor    =  -6.86 kcal/mol
DOCKED: USER        Moving Ligand-Moving Receptor   =  +0.00 kcal/mol
DOCKED: USER    (2) Final Total Internal Energy     =  -4.45 kcal/mol
DOCKED: USER    (3) Torsional Free Energy           =  +2.98 kcal/mol
DOCKED: USER    (4) Unbound System's Energy         =  -4.45 kcal/mol
DOCKED: USER
DOCKED: USER
DOCKED: REMARK  Name = 
DOCKED: REMARK  14 active torsions:
DOCKED: REMARK  status: ('A' for Active; 'I' for Inactive)
DOCKED: REMARK    1  A    between atoms: C_1  and  C_2
DOCKED: REMARK    2  A    between atoms: C_6  and  C_7
DOCKED: REMARK    3  A    between atoms: C_10  and  C_11
DOCKED: REMARK    4  A    between atoms: C_11  and  N_12
DOCKED: REMARK    5  A    between atoms: C_13  and  C_15
DOCKED: REMARK    6  A    between atoms: C_17  and  O_18
DOCKED: REMARK    7  A    between atoms: C_21  and  C_23
DOCKED: REMARK    8  A    between atoms: C_23  and  N_24
DOCKED: REMARK    9  A    between atoms: C_23  and  C_29
DOCKED: REMARK   10  A    between atoms: C_25  and  C_27
DOCKED: REMARK   11  A    between atoms: C_27  and  O_28
DOCKED: REMARK   12  A    between atoms: C_29  and  C_30
DOCKED: REMARK   13  A    between atoms: C_29  and  C_31
DOCKED: REMARK   14  A    between atoms: C_29  and  C_32
DOCKED: REMARK                            x       y       z     vdW  Elec       q    Type
DOCKED: REMARK                         _______ _______ _______ _____ _____    ______ ____
DOCKED: USER                              x       y       z     vdW  Elec       q    Type
DOCKED: USER                           _______ _______ _______ _____ _____    ______ ____
DOCKED: ROOT
DOCKED: ATOM      1  C   UNL     1       7.450  22.894  16.931 -0.19 -0.07    +0.164 C  
DOCKED: ATOM      2  C   UNL     1       6.153  22.573  16.155 -0.27 -0.03    +0.065 C  
DOCKED: ATOM      3  C   UNL     1       5.102  23.466  16.777 -0.17 -0.06    +0.134 C  
DOCKED: ATOM      4  C   UNL     1       5.883  24.732  17.111 -0.14 -0.13    +0.140 C  
DOCKED: ATOM      5  N   UNL     1       7.248  24.284  17.400 -0.13 +0.21    -0.286 N  
DOCKED: ATOM      6  C   UNL     1       7.948  24.985  18.379 -0.09 -0.20    +0.237 C  
DOCKED: ATOM      7  O   UNL     1       7.394  25.933  18.948 -0.11 +0.32    -0.274 OA 
DOCKED: ENDROOT
DOCKED: BRANCH   1   9
DOCKED: ATOM      8  N   UNL     1       9.682  23.582  16.013 -0.20 +0.06    -0.310 N  
DOCKED: ATOM      9  C   UNL     1       8.725  22.597  16.096 -0.25 -0.06    +0.234 C  
DOCKED: ATOM     10  O   UNL     1       8.900  21.523  15.522 -0.26 +0.05    -0.274 OA 
DOCKED: ATOM     11  H   UNL     1       9.399  24.552  16.042 +0.05 -0.05    +0.149 HD 
DOCKED: BRANCH   8  12
DOCKED: ATOM     12  C   UNL     1      10.894  23.303  15.288 -0.31 +0.01    +0.139 C  
DOCKED: BRANCH  12  16
DOCKED: ATOM     13  C   UNL     1      14.136  22.259  17.966 -0.27 +0.00    -0.010 A  
DOCKED: ATOM     14  C   UNL     1      13.543  23.531  18.046 -0.17 -0.00    +0.009 A  
DOCKED: ATOM     15  C   UNL     1      12.511  23.905  17.174 -0.16 +0.00    +0.006 A  
DOCKED: ATOM     16  C   UNL     1      12.074  23.028  16.175 -0.20 -0.00    -0.030 A  
DOCKED: ATOM     17  C   UNL     1      12.674  21.770  16.079 -0.38 -0.00    +0.006 A  
DOCKED: ATOM     18  C   UNL     1      13.676  21.391  16.969 -0.26 -0.00    +0.009 A  
DOCKED: BRANCH  13  24
DOCKED: ATOM     19  C   UNL     1      14.294  19.564  19.839 -0.18 -0.01    +0.067 C  
DOCKED: ATOM     20  C   UNL     1      15.267  20.687  19.722 -0.12 -0.00    +0.053 A  
DOCKED: ATOM     21  N   UNL     1      16.399  20.611  20.518 -0.45 -0.01    -0.252 NA 
DOCKED: ATOM     22  C   UNL     1      17.160  21.658  20.314 -0.05 +0.00    +0.156 A  
DOCKED: ATOM     23  S   UNL     1      16.586  22.793  19.175 -0.18 +0.01    -0.075 S  
DOCKED: ATOM     24  C   UNL     1      15.184  21.813  18.903 -0.16 -0.00    +0.042 A  
DOCKED: ENDBRANCH  13  24
DOCKED: ENDBRANCH  12  16
DOCKED: ENDBRANCH   8  12
DOCKED: ENDBRANCH   1   9
DOCKED: BRANCH   3  25
DOCKED: ATOM     25  O   UNL     1       4.571  22.817  17.926 -0.01 +0.14    -0.390 OA 
DOCKED: ATOM     26  H   UNL     1       5.306  22.451  18.444 +0.03 -0.07    +0.210 HD 
DOCKED: ENDBRANCH   3  25
DOCKED: BRANCH   6  27
DOCKED: ATOM     27  C   UNL     1       9.417  24.600  18.732 -0.10 -0.08    +0.164 C  
DOCKED: BRANCH  27  28
DOCKED: ATOM     28  N   UNL     1      10.302  25.768  18.820 -0.07 +0.16    -0.302 N  
DOCKED: ATOM     29  C   UNL     1      10.788  26.502  17.766 -0.13 -0.12    +0.239 C  
DOCKED: ATOM     30  O   UNL     1      10.778  26.139  16.597 -0.55 +0.01    -0.273 OA 
DOCKED: ATOM     31  H   UNL     1      10.464  26.145  19.750 +0.02 -0.07    +0.150 HD 
DOCKED: BRANCH  29  32
DOCKED: ATOM     32  C   UNL     1      11.377  27.852  18.191 -0.12 -0.11    +0.251 C  
DOCKED: BRANCH  32  33
DOCKED: ATOM     33  O   UNL     1      11.354  28.798  17.128 -0.56 +0.06    -0.386 OA 
DOCKED: ATOM     34  H   UNL     1      10.780  28.414  16.440 -0.41 -0.14    +0.210 HD 
DOCKED: ENDBRANCH  32  33
DOCKED: ENDBRANCH  29  32
DOCKED: ENDBRANCH  27  28
DOCKED: BRANCH  27  35
DOCKED: ATOM     35  C   UNL     1       9.590  23.617  19.944 -0.04 +0.00    -0.011 C  
DOCKED: ATOM     36  C   UNL     1       9.750  22.178  19.409 -0.05 -0.00    +0.013 C  
DOCKED: ATOM     37  C   UNL     1      10.889  23.957  20.718 -0.02 -0.00    +0.013 C  
DOCKED: ATOM     38  C   UNL     1       8.432  23.660  20.956 -0.01 -0.00    +0.013 C  
DOCKED: ENDBRANCH  27  35
DOCKED: ENDBRANCH   6  27
DOCKED: TORSDOF 10
DOCKED: TER
DOCKED: ENDMDL
________________________________________________________________________________


    FINAL DOCKED STATE:
    ________________________


Run:   37 / 50
Time taken for this run:   0.000s

DOCKED: MODEL        37
DOCKED: USER    Run = 37
DOCKED: USER
DOCKED: USER    Estimated Free Energy of Binding    =  -2.42 kcal/mol  [=(1)+(2)+(3)-(4)]
DOCKED: USER
DOCKED: USER    (1) Final Intermolecular Energy     =  -5.40 kcal/mol
DOCKED: USER        vdW + Hbond + desolv Energy     =  -5.51 kcal/mol
DOCKED: USER        Electrostatic Energy            =  +0.11 kcal/mol
DOCKED: USER        Moving Ligand-Fixed Receptor    =  -5.40 kcal/mol
DOCKED: USER        Moving Ligand-Moving Receptor   =  +0.00 kcal/mol
DOCKED: USER    (2) Final Total Internal Energy     =  -5.33 kcal/mol
DOCKED: USER    (3) Torsional Free Energy           =  +2.98 kcal/mol
DOCKED: USER    (4) Unbound System's Energy         =  -5.33 kcal/mol
DOCKED: USER
DOCKED: USER
DOCKED: REMARK  Name = 
DOCKED: REMARK  14 active torsions:
DOCKED: REMARK  status: ('A' for Active; 'I' for Inactive)
DOCKED: REMARK    1  A    between atoms: C_1  and  C_2
DOCKED: REMARK    2  A    between atoms: C_6  and  C_7
DOCKED: REMARK    3  A    between atoms: C_10  and  C_11
DOCKED: REMARK    4  A    between atoms: C_11  and  N_12
DOCKED: REMARK    5  A    between atoms: C_13  and  C_15
DOCKED: REMARK    6  A    between atoms: C_17  and  O_18
DOCKED: REMARK    7  A    between atoms: C_21  and  C_23
DOCKED: REMARK    8  A    between atoms: C_23  and  N_24
DOCKED: REMARK    9  A    between atoms: C_23  and  C_29
DOCKED: REMARK   10  A    between atoms: C_25  and  C_27
DOCKED: REMARK   11  A    between atoms: C_27  and  O_28
DOCKED: REMARK   12  A    between atoms: C_29  and  C_30
DOCKED: REMARK   13  A    between atoms: C_29  and  C_31
DOCKED: REMARK   14  A    between atoms: C_29  and  C_32
DOCKED: REMARK                            x       y       z     vdW  Elec       q    Type
DOCKED: REMARK                         _______ _______ _______ _____ _____    ______ ____
DOCKED: USER                              x       y       z     vdW  Elec       q    Type
DOCKED: USER                           _______ _______ _______ _____ _____    ______ ____
DOCKED: ROOT
DOCKED: ATOM      1  C   UNL     1      15.714  26.240  18.086 -0.10 +0.00    +0.164 C  
DOCKED: ATOM      2  C   UNL     1      15.928  27.537  17.274 -0.17 +0.01    +0.065 C  
DOCKED: ATOM      3  C   UNL     1      17.073  27.220  16.336 -0.24 +0.01    +0.134 C  
DOCKED: ATOM      4  C   UNL     1      16.841  25.751  15.998 -0.22 +0.02    +0.140 C  
DOCKED: ATOM      5  N   UNL     1      16.206  25.172  17.185 -0.14 -0.01    -0.286 N  
DOCKED: ATOM      6  C   UNL     1      16.526  23.851  17.490 -0.23 -0.02    +0.237 C  
DOCKED: ATOM      7  O   UNL     1      17.317  23.244  16.760 -0.30 +0.06    -0.274 OA 
DOCKED: ENDROOT
DOCKED: BRANCH   1   9
DOCKED: ATOM      8  N   UNL     1      13.235  26.502  17.796 -0.11 -0.05    -0.310 N  
DOCKED: ATOM      9  C   UNL     1      14.263  26.113  18.623 -0.08 -0.00    +0.234 C  
DOCKED: ATOM     10  O   UNL     1      14.013  25.677  19.746 -0.01 +0.03    -0.274 OA 
DOCKED: ATOM     11  H   UNL     1      13.388  27.250  17.133 +0.02 +0.07    +0.149 HD 
DOCKED: BRANCH   8  12
DOCKED: ATOM     12  C   UNL     1      11.882  26.340  18.257 -0.17 -0.02    +0.139 C  
DOCKED: BRANCH  12  16
DOCKED: ATOM     13  C   UNL     1      10.164  22.607  16.884 -0.21 +0.00    -0.010 A  
DOCKED: ATOM     14  C   UNL     1      10.616  23.555  15.951 -0.35 -0.00    +0.009 A  
DOCKED: ATOM     15  C   UNL     1      11.151  24.783  16.366 -0.19 +0.00    +0.006 A  
DOCKED: ATOM     16  C   UNL     1      11.210  25.106  17.727 -0.19 +0.01    -0.030 A  
DOCKED: ATOM     17  C   UNL     1      10.744  24.174  18.657 -0.09 -0.00    +0.006 A  
DOCKED: ATOM     18  C   UNL     1      10.244  22.943  18.241 -0.09 -0.00    +0.009 A  
DOCKED: BRANCH  13  24
DOCKED: ATOM     19  C   UNL     1      11.671  20.124  15.348 -0.37 -0.01    +0.067 C  
DOCKED: ATOM     20  C   UNL     1      10.260  20.222  15.816 -0.33 -0.01    +0.053 A  
DOCKED: ATOM     21  N   UNL     1       9.446  19.129  15.564 -0.26 +0.04    -0.252 NA 
DOCKED: ATOM     22  C   UNL     1       8.240  19.354  16.025 -0.22 -0.02    +0.156 A  
DOCKED: ATOM     23  S   UNL     1       7.995  20.865  16.781 -0.28 +0.02    -0.075 S  
DOCKED: ATOM     24  C   UNL     1       9.649  21.284  16.483 -0.24 -0.01    +0.042 A  
DOCKED: ENDBRANCH  13  24
DOCKED: ENDBRANCH  12  16
DOCKED: ENDBRANCH   8  12
DOCKED: ENDBRANCH   1   9
DOCKED: BRANCH   3  25
DOCKED: ATOM     25  O   UNL     1      18.300  27.449  17.018 -0.04 +0.02    -0.390 OA 
DOCKED: ATOM     26  H   UNL     1      18.559  26.633  17.475 +0.05 -0.02    +0.210 HD 
DOCKED: ENDBRANCH   3  25
DOCKED: BRANCH   6  27
DOCKED: ATOM     27  C   UNL     1      15.876  23.141  18.716 -0.16 -0.02    +0.164 C  
DOCKED: BRANCH  27  28
DOCKED: ATOM     28  N   UNL     1      15.949  23.947  19.940 -0.01 +0.03    -0.302 N  
DOCKED: ATOM     29  C   UNL     1      17.085  24.482  20.497 -0.02 -0.03    +0.239 C  
DOCKED: ATOM     30  O   UNL     1      18.227  24.148  20.213 -0.03 +0.03    -0.273 OA 
DOCKED: ATOM     31  H   UNL     1      15.063  24.245  20.340 +0.02 -0.02    +0.150 HD 
DOCKED: BRANCH  29  32
DOCKED: ATOM     32  C   UNL     1      16.793  25.557  21.550 +0.00 -0.03    +0.251 C  
DOCKED: BRANCH  32  33
DOCKED: ATOM     33  O   UNL     1      15.451  25.487  22.019 +0.00 +0.06    -0.386 OA 
DOCKED: ATOM     34  H   UNL     1      14.904  25.914  21.334 +0.01 -0.03    +0.210 HD 
DOCKED: ENDBRANCH  32  33
DOCKED: ENDBRANCH  29  32
DOCKED: ENDBRANCH  27  28
DOCKED: BRANCH  27  35
DOCKED: ATOM     35  C   UNL     1      14.448  22.537  18.473 -0.24 +0.00    -0.011 C  
DOCKED: ATOM     36  C   UNL     1      13.878  23.101  17.153 -0.20 +0.00    +0.013 C  
DOCKED: ATOM     37  C   UNL     1      14.548  21.000  18.299 -0.23 -0.00    +0.013 C  
DOCKED: ATOM     38  C   UNL     1      13.452  22.803  19.615 -0.08 -0.00    +0.013 C  
DOCKED: ENDBRANCH  27  35
DOCKED: ENDBRANCH   6  27
DOCKED: TORSDOF 10
DOCKED: TER
DOCKED: ENDMDL
________________________________________________________________________________


    FINAL DOCKED STATE:
    ________________________


Run:   38 / 50
Time taken for this run:   0.000s

DOCKED: MODEL        38
DOCKED: USER    Run = 38
DOCKED: USER
DOCKED: USER    Estimated Free Energy of Binding    =  -3.08 kcal/mol  [=(1)+(2)+(3)-(4)]
DOCKED: USER
DOCKED: USER    (1) Final Intermolecular Energy     =  -6.07 kcal/mol
DOCKED: USER        vdW + Hbond + desolv Energy     =  -6.05 kcal/mol
DOCKED: USER        Electrostatic Energy            =  -0.01 kcal/mol
DOCKED: USER        Moving Ligand-Fixed Receptor    =  -6.07 kcal/mol
DOCKED: USER        Moving Ligand-Moving Receptor   =  +0.00 kcal/mol
DOCKED: USER    (2) Final Total Internal Energy     =  -4.87 kcal/mol
DOCKED: USER    (3) Torsional Free Energy           =  +2.98 kcal/mol
DOCKED: USER    (4) Unbound System's Energy         =  -4.87 kcal/mol
DOCKED: USER
DOCKED: USER
DOCKED: REMARK  Name = 
DOCKED: REMARK  14 active torsions:
DOCKED: REMARK  status: ('A' for Active; 'I' for Inactive)
DOCKED: REMARK    1  A    between atoms: C_1  and  C_2
DOCKED: REMARK    2  A    between atoms: C_6  and  C_7
DOCKED: REMARK    3  A    between atoms: C_10  and  C_11
DOCKED: REMARK    4  A    between atoms: C_11  and  N_12
DOCKED: REMARK    5  A    between atoms: C_13  and  C_15
DOCKED: REMARK    6  A    between atoms: C_17  and  O_18
DOCKED: REMARK    7  A    between atoms: C_21  and  C_23
DOCKED: REMARK    8  A    between atoms: C_23  and  N_24
DOCKED: REMARK    9  A    between atoms: C_23  and  C_29
DOCKED: REMARK   10  A    between atoms: C_25  and  C_27
DOCKED: REMARK   11  A    between atoms: C_27  and  O_28
DOCKED: REMARK   12  A    between atoms: C_29  and  C_30
DOCKED: REMARK   13  A    between atoms: C_29  and  C_31
DOCKED: REMARK   14  A    between atoms: C_29  and  C_32
DOCKED: REMARK                            x       y       z     vdW  Elec       q    Type
DOCKED: REMARK                         _______ _______ _______ _____ _____    ______ ____
DOCKED: USER                              x       y       z     vdW  Elec       q    Type
DOCKED: USER                           _______ _______ _______ _____ _____    ______ ____
DOCKED: ROOT
DOCKED: ATOM      1  C   UNL     1      14.485  24.521  18.272 -0.13 -0.00    +0.164 C  
DOCKED: ATOM      2  C   UNL     1      15.719  25.422  18.041 -0.15 -0.00    +0.065 C  
DOCKED: ATOM      3  C   UNL     1      16.872  24.458  17.869 -0.20 -0.01    +0.134 C  
DOCKED: ATOM      4  C   UNL     1      16.230  23.285  17.137 -0.22 -0.02    +0.140 C  
DOCKED: ATOM      5  N   UNL     1      14.838  23.254  17.592 -0.16 +0.01    -0.286 N  
DOCKED: ATOM      6  C   UNL     1      14.242  22.001  17.716 -0.25 -0.04    +0.237 C  
DOCKED: ATOM      7  O   UNL     1      14.904  20.994  17.443 -0.18 +0.10    -0.274 OA 
DOCKED: ENDROOT
DOCKED: BRANCH   1   9
DOCKED: ATOM      8  N   UNL     1      12.294  24.514  17.048 -0.09 -0.04    -0.310 N  
DOCKED: ATOM      9  C   UNL     1      13.161  25.216  17.853 -0.11 +0.01    +0.234 C  
DOCKED: ATOM     10  O   UNL     1      12.871  26.354  18.219 -0.12 -0.00    -0.274 OA 
DOCKED: ATOM     11  H   UNL     1      12.664  23.848  16.383 +0.05 +0.04    +0.149 HD 
DOCKED: BRANCH   8  12
DOCKED: ATOM     12  C   UNL     1      11.039  25.122  16.695 -0.22 +0.00    +0.139 C  
DOCKED: BRANCH  12  16
DOCKED: ATOM     13  C   UNL     1       7.954  22.089  16.439 -0.27 +0.00    -0.010 A  
DOCKED: ATOM     14  C   UNL     1       8.677  22.452  15.290 -0.26 -0.00    +0.009 A  
DOCKED: ATOM     15  C   UNL     1       9.662  23.449  15.338 -0.37 -0.00    +0.006 A  
DOCKED: ATOM     16  C   UNL     1       9.919  24.135  16.530 -0.27 +0.01    -0.030 A  
DOCKED: ATOM     17  C   UNL     1       9.189  23.791  17.671 -0.17 -0.00    +0.006 A  
DOCKED: ATOM     18  C   UNL     1       8.235  22.777  17.626 -0.14 -0.00    +0.009 A  
DOCKED: BRANCH  13  24
DOCKED: ATOM     19  C   UNL     1       4.822  22.105  15.448 -0.30 -0.02    +0.067 C  
DOCKED: ATOM     20  C   UNL     1       5.615  20.991  16.040 -0.16 -0.01    +0.053 A  
DOCKED: ATOM     21  N   UNL     1       4.953  19.788  16.221 -0.06 +0.03    -0.252 NA 
DOCKED: ATOM     22  C   UNL     1       5.767  18.905  16.748 -0.13 -0.01    +0.156 A  
DOCKED: ATOM     23  S   UNL     1       7.356  19.443  17.061 -0.26 +0.01    -0.075 S  
DOCKED: ATOM     24  C   UNL     1       6.953  21.007  16.436 -0.21 -0.01    +0.042 A  
DOCKED: ENDBRANCH  13  24
DOCKED: ENDBRANCH  12  16
DOCKED: ENDBRANCH   8  12
DOCKED: ENDBRANCH   1   9
DOCKED: BRANCH   3  25
DOCKED: ATOM     25  O   UNL     1      17.373  24.109  19.154 -0.04 +0.04    -0.390 OA 
DOCKED: ATOM     26  H   UNL     1      17.114  24.799  19.787 +0.03 -0.02    +0.210 HD 
DOCKED: ENDBRANCH   3  25
DOCKED: BRANCH   6  27
DOCKED: ATOM     27  C   UNL     1      12.754  21.872  18.163 -0.16 -0.02    +0.164 C  
DOCKED: BRANCH  27  28
DOCKED: ATOM     28  N   UNL     1      11.967  21.015  17.269 -0.12 +0.04    -0.302 N  
DOCKED: ATOM     29  C   UNL     1      11.917  21.096  15.899 -0.31 -0.02    +0.239 C  
DOCKED: ATOM     30  O   UNL     1      12.304  22.052  15.240 -0.34 -0.03    -0.273 OA 
DOCKED: ATOM     31  H   UNL     1      11.520  20.206  17.693 +0.05 -0.02    +0.150 HD 
DOCKED: BRANCH  29  32
DOCKED: ATOM     32  C   UNL     1      11.303  19.854  15.243 -0.27 -0.03    +0.251 C  
DOCKED: BRANCH  32  33
DOCKED: ATOM     33  O   UNL     1      10.492  19.121  16.153 -0.24 +0.06    -0.386 OA 
DOCKED: ATOM     34  H   UNL     1      10.845  18.212  16.155 +0.06 -0.04    +0.210 HD 
DOCKED: ENDBRANCH  32  33
DOCKED: ENDBRANCH  29  32
DOCKED: ENDBRANCH  27  28
DOCKED: BRANCH  27  35
DOCKED: ATOM     35  C   UNL     1      12.527  21.535  19.680 -0.10 +0.00    -0.011 C  
DOCKED: ATOM     36  C   UNL     1      11.063  21.090  19.885 -0.07 -0.00    +0.013 C  
DOCKED: ATOM     37  C   UNL     1      13.423  20.339  20.094 -0.15 -0.00    +0.013 C  
DOCKED: ATOM     38  C   UNL     1      12.847  22.697  20.635 -0.03 -0.00    +0.013 C  
DOCKED: ENDBRANCH  27  35
DOCKED: ENDBRANCH   6  27
DOCKED: TORSDOF 10
DOCKED: TER
DOCKED: ENDMDL
________________________________________________________________________________


    FINAL DOCKED STATE:
    ________________________


Run:   39 / 50
Time taken for this run:   0.000s

DOCKED: MODEL        39
DOCKED: USER    Run = 39
DOCKED: USER
DOCKED: USER    Estimated Free Energy of Binding    =  -4.33 kcal/mol  [=(1)+(2)+(3)-(4)]
DOCKED: USER
DOCKED: USER    (1) Final Intermolecular Energy     =  -7.31 kcal/mol
DOCKED: USER        vdW + Hbond + desolv Energy     =  -6.96 kcal/mol
DOCKED: USER        Electrostatic Energy            =  -0.36 kcal/mol
DOCKED: USER        Moving Ligand-Fixed Receptor    =  -7.31 kcal/mol
DOCKED: USER        Moving Ligand-Moving Receptor   =  +0.00 kcal/mol
DOCKED: USER    (2) Final Total Internal Energy     =  -3.72 kcal/mol
DOCKED: USER    (3) Torsional Free Energy           =  +2.98 kcal/mol
DOCKED: USER    (4) Unbound System's Energy         =  -3.72 kcal/mol
DOCKED: USER
DOCKED: USER
DOCKED: REMARK  Name = 
DOCKED: REMARK  14 active torsions:
DOCKED: REMARK  status: ('A' for Active; 'I' for Inactive)
DOCKED: REMARK    1  A    between atoms: C_1  and  C_2
DOCKED: REMARK    2  A    between atoms: C_6  and  C_7
DOCKED: REMARK    3  A    between atoms: C_10  and  C_11
DOCKED: REMARK    4  A    between atoms: C_11  and  N_12
DOCKED: REMARK    5  A    between atoms: C_13  and  C_15
DOCKED: REMARK    6  A    between atoms: C_17  and  O_18
DOCKED: REMARK    7  A    between atoms: C_21  and  C_23
DOCKED: REMARK    8  A    between atoms: C_23  and  N_24
DOCKED: REMARK    9  A    between atoms: C_23  and  C_29
DOCKED: REMARK   10  A    between atoms: C_25  and  C_27
DOCKED: REMARK   11  A    between atoms: C_27  and  O_28
DOCKED: REMARK   12  A    between atoms: C_29  and  C_30
DOCKED: REMARK   13  A    between atoms: C_29  and  C_31
DOCKED: REMARK   14  A    between atoms: C_29  and  C_32
DOCKED: REMARK                            x       y       z     vdW  Elec       q    Type
DOCKED: REMARK                         _______ _______ _______ _____ _____    ______ ____
DOCKED: USER                              x       y       z     vdW  Elec       q    Type
DOCKED: USER                           _______ _______ _______ _____ _____    ______ ____
DOCKED: ROOT
DOCKED: ATOM      1  C   UNL     1      14.509  21.882  18.109 -0.26 -0.03    +0.164 C  
DOCKED: ATOM      2  C   UNL     1      14.419  20.510  18.814 -0.10 -0.01    +0.065 C  
DOCKED: ATOM      3  C   UNL     1      14.769  20.796  20.258 -0.14 -0.01    +0.134 C  
DOCKED: ATOM      4  C   UNL     1      14.167  22.178  20.488 -0.05 -0.02    +0.140 C  
DOCKED: ATOM      5  N   UNL     1      14.237  22.856  19.191 -0.05 +0.03    -0.286 N  
DOCKED: ATOM      6  C   UNL     1      14.469  24.228  19.209 -0.05 -0.02    +0.237 C  
DOCKED: ATOM      7  O   UNL     1      14.605  24.798  20.297 -0.01 +0.03    -0.274 OA 
DOCKED: ENDROOT
DOCKED: BRANCH   1   9
DOCKED: ATOM      8  N   UNL     1      12.503  22.758  16.881 -0.13 +0.00    -0.310 N  
DOCKED: ATOM      9  C   UNL     1      13.617  21.952  16.840 -0.26 -0.02    +0.234 C  
DOCKED: ATOM     10  O   UNL     1      13.878  21.321  15.816 -0.30 +0.04    -0.274 OA 
DOCKED: ATOM     11  H   UNL     1      12.019  22.891  17.759 +0.05 -0.01    +0.149 HD 
DOCKED: BRANCH   8  12
DOCKED: ATOM     12  C   UNL     1      11.695  22.877  15.697 -0.26 +0.02    +0.139 C  
DOCKED: BRANCH  12  16
DOCKED: ATOM     13  C   UNL     1       7.508  21.835  16.082 -0.30 +0.00    -0.010 A  
DOCKED: ATOM     14  C   UNL     1       7.894  23.186  16.051 -0.29 -0.00    +0.009 A  
DOCKED: ATOM     15  C   UNL     1       9.243  23.552  15.955 -0.33 -0.00    +0.006 A  
DOCKED: ATOM     16  C   UNL     1      10.243  22.573  15.926 -0.31 +0.00    -0.030 A  
DOCKED: ATOM     17  C   UNL     1       9.865  21.229  15.976 -0.29 -0.00    +0.006 A  
DOCKED: ATOM     18  C   UNL     1       8.521  20.870  16.038 -0.31 -0.00    +0.009 A  
DOCKED: BRANCH  13  24
DOCKED: ATOM     19  C   UNL     1       4.781  23.492  15.297 -0.30 -0.03    +0.067 C  
DOCKED: ATOM     20  C   UNL     1       4.920  22.103  15.817 -0.23 -0.02    +0.053 A  
DOCKED: ATOM     21  N   UNL     1       3.745  21.397  16.020 -0.08 +0.06    -0.252 NA 
DOCKED: ATOM     22  C   UNL     1       4.016  20.200  16.478 -0.08 -0.03    +0.156 A  
DOCKED: ATOM     23  S   UNL     1       5.670  19.836  16.696 -0.20 +0.01    -0.075 S  
DOCKED: ATOM     24  C   UNL     1       6.094  21.415  16.126 -0.22 -0.01    +0.042 A  
DOCKED: ENDBRANCH  13  24
DOCKED: ENDBRANCH  12  16
DOCKED: ENDBRANCH   8  12
DOCKED: ENDBRANCH   1   9
DOCKED: BRANCH   3  25
DOCKED: ATOM     25  O   UNL     1      16.184  20.771  20.399 -0.37 -0.01    -0.390 OA 
DOCKED: ATOM     26  H   UNL     1      16.474  21.619  20.772 +0.04 -0.01    +0.210 HD 
DOCKED: ENDBRANCH   3  25
DOCKED: BRANCH   6  27
DOCKED: ATOM     27  C   UNL     1      14.528  25.039  17.879 -0.13 +0.01    +0.164 C  
DOCKED: BRANCH  27  28
DOCKED: ATOM     28  N   UNL     1      13.367  25.918  17.700 -0.11 -0.04    -0.302 N  
DOCKED: ATOM     29  C   UNL     1      12.110  25.722  18.216 -0.12 -0.02    +0.239 C  
DOCKED: ATOM     30  O   UNL     1      11.699  24.663  18.672 -0.05 +0.05    -0.273 OA 
DOCKED: ATOM     31  H   UNL     1      13.543  26.820  17.263 +0.02 +0.05    +0.150 HD 
DOCKED: BRANCH  29  32
DOCKED: ATOM     32  C   UNL     1      11.230  26.976  18.159 -0.15 -0.10    +0.251 C  
DOCKED: BRANCH  32  33
DOCKED: ATOM     33  O   UNL     1      11.570  27.810  17.057 -0.45 -0.07    -0.386 OA 
DOCKED: ATOM     34  H   UNL     1      10.744  28.258  16.795 -0.40 -0.20    +0.210 HD 
DOCKED: ENDBRANCH  32  33
DOCKED: ENDBRANCH  29  32
DOCKED: ENDBRANCH  27  28
DOCKED: BRANCH  27  35
DOCKED: ATOM     35  C   UNL     1      15.889  25.766  17.585 -0.20 -0.00    -0.011 C  
DOCKED: ATOM     36  C   UNL     1      15.616  27.024  16.731 -0.17 +0.00    +0.013 C  
DOCKED: ATOM     37  C   UNL     1      16.524  26.253  18.913 -0.06 -0.00    +0.013 C  
DOCKED: ATOM     38  C   UNL     1      16.931  24.885  16.877 -0.31 -0.00    +0.013 C  
DOCKED: ENDBRANCH  27  35
DOCKED: ENDBRANCH   6  27
DOCKED: TORSDOF 10
DOCKED: TER
DOCKED: ENDMDL
________________________________________________________________________________


    FINAL DOCKED STATE:
    ________________________


Run:   40 / 50
Time taken for this run:   0.000s

DOCKED: MODEL        40
DOCKED: USER    Run = 40
DOCKED: USER
DOCKED: USER    Estimated Free Energy of Binding    =  -3.35 kcal/mol  [=(1)+(2)+(3)-(4)]
DOCKED: USER
DOCKED: USER    (1) Final Intermolecular Energy     =  -6.33 kcal/mol
DOCKED: USER        vdW + Hbond + desolv Energy     =  -6.09 kcal/mol
DOCKED: USER        Electrostatic Energy            =  -0.24 kcal/mol
DOCKED: USER        Moving Ligand-Fixed Receptor    =  -6.33 kcal/mol
DOCKED: USER        Moving Ligand-Moving Receptor   =  +0.00 kcal/mol
DOCKED: USER    (2) Final Total Internal Energy     =  -4.74 kcal/mol
DOCKED: USER    (3) Torsional Free Energy           =  +2.98 kcal/mol
DOCKED: USER    (4) Unbound System's Energy         =  -4.74 kcal/mol
DOCKED: USER
DOCKED: USER
DOCKED: REMARK  Name = 
DOCKED: REMARK  14 active torsions:
DOCKED: REMARK  status: ('A' for Active; 'I' for Inactive)
DOCKED: REMARK    1  A    between atoms: C_1  and  C_2
DOCKED: REMARK    2  A    between atoms: C_6  and  C_7
DOCKED: REMARK    3  A    between atoms: C_10  and  C_11
DOCKED: REMARK    4  A    between atoms: C_11  and  N_12
DOCKED: REMARK    5  A    between atoms: C_13  and  C_15
DOCKED: REMARK    6  A    between atoms: C_17  and  O_18
DOCKED: REMARK    7  A    between atoms: C_21  and  C_23
DOCKED: REMARK    8  A    between atoms: C_23  and  N_24
DOCKED: REMARK    9  A    between atoms: C_23  and  C_29
DOCKED: REMARK   10  A    between atoms: C_25  and  C_27
DOCKED: REMARK   11  A    between atoms: C_27  and  O_28
DOCKED: REMARK   12  A    between atoms: C_29  and  C_30
DOCKED: REMARK   13  A    between atoms: C_29  and  C_31
DOCKED: REMARK   14  A    between atoms: C_29  and  C_32
DOCKED: REMARK                            x       y       z     vdW  Elec       q    Type
DOCKED: REMARK                         _______ _______ _______ _____ _____    ______ ____
DOCKED: USER                              x       y       z     vdW  Elec       q    Type
DOCKED: USER                           _______ _______ _______ _____ _____    ______ ____
DOCKED: ROOT
DOCKED: ATOM      1  C   UNL     1      10.011  21.939  17.901 -0.09 -0.03    +0.164 C  
DOCKED: ATOM      2  C   UNL     1       8.856  20.936  17.684 -0.13 -0.01    +0.065 C  
DOCKED: ATOM      3  C   UNL     1       8.643  20.913  16.186 -0.28 -0.02    +0.134 C  
DOCKED: ATOM      4  C   UNL     1      10.055  21.078  15.638 -0.13 -0.01    +0.140 C  
DOCKED: ATOM      5  N   UNL     1      10.767  21.889  16.629 -0.12 +0.03    -0.286 N  
DOCKED: ATOM      6  C   UNL     1      11.722  22.781  16.146 -0.22 +0.01    +0.237 C  
DOCKED: ATOM      7  O   UNL     1      11.918  22.845  14.927 -0.27 -0.08    -0.274 OA 
DOCKED: ENDROOT
DOCKED: BRANCH   1   9
DOCKED: ATOM      8  N   UNL     1      11.360  20.416  19.372 -0.05 +0.05    -0.310 N  
DOCKED: ATOM      9  C   UNL     1      10.795  21.660  19.212 -0.04 -0.04    +0.234 C  
DOCKED: ATOM     10  O   UNL     1      10.925  22.509  20.094 -0.01 +0.05    -0.274 OA 
DOCKED: ATOM     11  H   UNL     1      10.912  19.612  18.956 +0.03 -0.02    +0.149 HD 
DOCKED: BRANCH   8  12
DOCKED: ATOM     12  C   UNL     1      12.135  20.160  20.556 -0.07 -0.02    +0.139 C  
DOCKED: BRANCH  12  16
DOCKED: ATOM     13  C   UNL     1      15.603  17.593  20.158 -0.27 +0.00    -0.010 A  
DOCKED: ATOM     14  C   UNL     1      15.702  18.959  19.842 -0.25 -0.00    +0.009 A  
DOCKED: ATOM     15  C   UNL     1      14.589  19.807  19.935 -0.20 -0.00    +0.006 A  
DOCKED: ATOM     16  C   UNL     1      13.340  19.299  20.310 -0.12 +0.00    -0.030 A  
DOCKED: ATOM     17  C   UNL     1      13.233  17.938  20.607 -0.09 -0.00    +0.006 A  
DOCKED: ATOM     18  C   UNL     1      14.348  17.106  20.545 -0.14 -0.00    +0.009 A  
DOCKED: BRANCH  13  24
DOCKED: ATOM     19  C   UNL     1      18.676  18.050  21.225 -0.14 -0.01    +0.067 C  
DOCKED: ATOM     20  C   UNL     1      18.082  16.861  20.553 -0.15 -0.02    +0.053 A  
DOCKED: ATOM     21  N   UNL     1      18.931  15.791  20.322 -0.10 +0.08    -0.252 NA 
DOCKED: ATOM     22  C   UNL     1      18.278  14.823  19.727 -0.18 -0.04    +0.156 A  
DOCKED: ATOM     23  S   UNL     1      16.628  15.117  19.405 -0.35 +0.01    -0.075 S  
DOCKED: ATOM     24  C   UNL     1      16.765  16.686  20.125 -0.28 -0.01    +0.042 A  
DOCKED: ENDBRANCH  13  24
DOCKED: ENDBRANCH  12  16
DOCKED: ENDBRANCH   8  12
DOCKED: ENDBRANCH   1   9
DOCKED: BRANCH   3  25
DOCKED: ATOM     25  O   UNL     1       7.776  21.983  15.830 -0.20 +0.13    -0.390 OA 
DOCKED: ATOM     26  H   UNL     1       7.817  22.110  14.869 -0.35 -0.10    +0.210 HD 
DOCKED: ENDBRANCH   3  25
DOCKED: BRANCH   6  27
DOCKED: ATOM     27  C   UNL     1      12.551  23.663  17.128 -0.15 +0.01    +0.164 C  
DOCKED: BRANCH  27  28
DOCKED: ATOM     28  N   UNL     1      11.706  24.428  18.052 -0.07 +0.04    -0.302 N  
DOCKED: ATOM     29  C   UNL     1      10.984  25.557  17.752 -0.17 -0.06    +0.239 C  
DOCKED: ATOM     30  O   UNL     1      11.145  26.244  16.752 -0.55 -0.05    -0.273 OA 
DOCKED: ATOM     31  H   UNL     1      11.536  24.009  18.964 +0.03 -0.03    +0.150 HD 
DOCKED: BRANCH  29  32
DOCKED: ATOM     32  C   UNL     1       9.935  25.904  18.814 -0.09 -0.17    +0.251 C  
DOCKED: BRANCH  32  33
DOCKED: ATOM     33  O   UNL     1      10.060  25.083  19.970 -0.01 +0.15    -0.386 OA 
DOCKED: ATOM     34  H   UNL     1      10.135  24.167  19.641 +0.03 -0.07    +0.210 HD 
DOCKED: ENDBRANCH  32  33
DOCKED: ENDBRANCH  29  32
DOCKED: ENDBRANCH  27  28
DOCKED: BRANCH  27  35
DOCKED: ATOM     35  C   UNL     1      13.741  22.939  17.853 -0.25 +0.00    -0.011 C  
DOCKED: ATOM     36  C   UNL     1      13.781  21.461  17.407 -0.31 -0.00    +0.013 C  
DOCKED: ATOM     37  C   UNL     1      15.087  23.576  17.423 -0.22 -0.00    +0.013 C  
DOCKED: ATOM     38  C   UNL     1      13.674  23.007  19.389 -0.10 -0.00    +0.013 C  
DOCKED: ENDBRANCH  27  35
DOCKED: ENDBRANCH   6  27
DOCKED: TORSDOF 10
DOCKED: TER
DOCKED: ENDMDL
________________________________________________________________________________


    FINAL DOCKED STATE:
    ________________________


Run:   41 / 50
Time taken for this run:   0.000s

DOCKED: MODEL        41
DOCKED: USER    Run = 41
DOCKED: USER
DOCKED: USER    Estimated Free Energy of Binding    =  -4.23 kcal/mol  [=(1)+(2)+(3)-(4)]
DOCKED: USER
DOCKED: USER    (1) Final Intermolecular Energy     =  -7.21 kcal/mol
DOCKED: USER        vdW + Hbond + desolv Energy     =  -6.93 kcal/mol
DOCKED: USER        Electrostatic Energy            =  -0.28 kcal/mol
DOCKED: USER        Moving Ligand-Fixed Receptor    =  -7.21 kcal/mol
DOCKED: USER        Moving Ligand-Moving Receptor   =  +0.00 kcal/mol
DOCKED: USER    (2) Final Total Internal Energy     =  -3.85 kcal/mol
DOCKED: USER    (3) Torsional Free Energy           =  +2.98 kcal/mol
DOCKED: USER    (4) Unbound System's Energy         =  -3.85 kcal/mol
DOCKED: USER
DOCKED: USER
DOCKED: REMARK  Name = 
DOCKED: REMARK  14 active torsions:
DOCKED: REMARK  status: ('A' for Active; 'I' for Inactive)
DOCKED: REMARK    1  A    between atoms: C_1  and  C_2
DOCKED: REMARK    2  A    between atoms: C_6  and  C_7
DOCKED: REMARK    3  A    between atoms: C_10  and  C_11
DOCKED: REMARK    4  A    between atoms: C_11  and  N_12
DOCKED: REMARK    5  A    between atoms: C_13  and  C_15
DOCKED: REMARK    6  A    between atoms: C_17  and  O_18
DOCKED: REMARK    7  A    between atoms: C_21  and  C_23
DOCKED: REMARK    8  A    between atoms: C_23  and  N_24
DOCKED: REMARK    9  A    between atoms: C_23  and  C_29
DOCKED: REMARK   10  A    between atoms: C_25  and  C_27
DOCKED: REMARK   11  A    between atoms: C_27  and  O_28
DOCKED: REMARK   12  A    between atoms: C_29  and  C_30
DOCKED: REMARK   13  A    between atoms: C_29  and  C_31
DOCKED: REMARK   14  A    between atoms: C_29  and  C_32
DOCKED: REMARK                            x       y       z     vdW  Elec       q    Type
DOCKED: REMARK                         _______ _______ _______ _____ _____    ______ ____
DOCKED: USER                              x       y       z     vdW  Elec       q    Type
DOCKED: USER                           _______ _______ _______ _____ _____    ______ ____
DOCKED: ROOT
DOCKED: ATOM      1  C   UNL     1      13.016  26.499  17.838 -0.14 +0.02    +0.164 C  
DOCKED: ATOM      2  C   UNL     1      13.026  27.962  18.336 -0.14 +0.00    +0.065 C  
DOCKED: ATOM      3  C   UNL     1      11.594  28.428  18.191 -0.16 -0.04    +0.134 C  
DOCKED: ATOM      4  C   UNL     1      10.792  27.174  18.520 -0.11 -0.09    +0.140 C  
DOCKED: ATOM      5  N   UNL     1      11.626  26.051  18.085 -0.12 +0.05    -0.286 N  
DOCKED: ATOM      6  C   UNL     1      10.966  24.935  17.575 -0.16 -0.05    +0.237 C  
DOCKED: ATOM      7  O   UNL     1       9.731  24.947  17.515 -0.16 +0.14    -0.274 OA 
DOCKED: ENDROOT
DOCKED: BRANCH   1   9
DOCKED: ATOM      8  N   UNL     1      14.954  24.922  17.609 -0.08 -0.02    -0.310 N  
DOCKED: ATOM      9  C   UNL     1      14.162  25.657  18.460 -0.09 -0.00    +0.234 C  
DOCKED: ATOM     10  O   UNL     1      14.378  25.633  19.672 -0.01 +0.03    -0.274 OA 
DOCKED: ATOM     11  H   UNL     1      14.556  24.550  16.758 +0.09 +0.04    +0.149 HD 
DOCKED: BRANCH   8  12
DOCKED: ATOM     12  C   UNL     1      16.054  24.179  18.163 -0.18 -0.01    +0.139 C  
DOCKED: BRANCH  12  16
DOCKED: ATOM     13  C   UNL     1      19.738  25.137  16.093 -0.18 +0.00    -0.010 A  
DOCKED: ATOM     14  C   UNL     1      19.679  24.013  16.935 -0.23 -0.00    +0.009 A  
DOCKED: ATOM     15  C   UNL     1      18.509  23.695  17.639 -0.15 -0.00    +0.006 A  
DOCKED: ATOM     16  C   UNL     1      17.380  24.518  17.546 -0.24 +0.00    -0.030 A  
DOCKED: ATOM     17  C   UNL     1      17.441  25.646  16.724 -0.28 -0.00    +0.006 A  
DOCKED: ATOM     18  C   UNL     1      18.595  25.939  16.002 -0.26 -0.00    +0.009 A  
DOCKED: BRANCH  13  24
DOCKED: ATOM     19  C   UNL     1      22.048  23.173  14.826 -0.34 -0.02    +0.067 C  
DOCKED: ATOM     20  C   UNL     1      21.938  24.658  14.763 -0.25 -0.01    +0.053 A  
DOCKED: ATOM     21  N   UNL     1      22.950  25.326  14.093 -0.13 +0.07    -0.252 NA 
DOCKED: ATOM     22  C   UNL     1      22.726  26.617  14.118 -0.11 -0.03    +0.156 A  
DOCKED: ATOM     23  S   UNL     1      21.312  27.118  14.933 -0.19 +0.01    -0.075 S  
DOCKED: ATOM     24  C   UNL     1      20.934  25.467  15.296 -0.19 -0.01    +0.042 A  
DOCKED: ENDBRANCH  13  24
DOCKED: ENDBRANCH  12  16
DOCKED: ENDBRANCH   8  12
DOCKED: ENDBRANCH   1   9
DOCKED: BRANCH   3  25
DOCKED: ATOM     25  O   UNL     1      11.394  28.887  16.860 -0.55 -0.05    -0.390 OA 
DOCKED: ATOM     26  H   UNL     1      10.455  28.790  16.635 -0.42 -0.32    +0.210 HD 
DOCKED: ENDBRANCH   3  25
DOCKED: BRANCH   6  27
DOCKED: ATOM     27  C   UNL     1      11.768  23.681  17.116 -0.18 -0.00    +0.164 C  
DOCKED: BRANCH  27  28
DOCKED: ATOM     28  N   UNL     1      12.365  22.949  18.239 -0.05 +0.03    -0.302 N  
DOCKED: ATOM     29  C   UNL     1      13.600  22.348  18.256 -0.16 -0.03    +0.239 C  
DOCKED: ATOM     30  O   UNL     1      14.272  22.102  17.262 -0.27 +0.04    -0.273 OA 
DOCKED: ATOM     31  H   UNL     1      11.874  23.003  19.129 +0.03 -0.02    +0.150 HD 
DOCKED: BRANCH  29  32
DOCKED: ATOM     32  C   UNL     1      14.078  21.987  19.667 -0.08 -0.03    +0.251 C  
DOCKED: BRANCH  32  33
DOCKED: ATOM     33  O   UNL     1      13.466  22.805  20.658 -0.00 +0.06    -0.386 OA 
DOCKED: ATOM     34  H   UNL     1      13.637  23.726  20.389 +0.02 -0.03    +0.210 HD 
DOCKED: ENDBRANCH  32  33
DOCKED: ENDBRANCH  29  32
DOCKED: ENDBRANCH  27  28
DOCKED: BRANCH  27  35
DOCKED: ATOM     35  C   UNL     1      11.031  22.736  16.101 -0.35 +0.00    -0.011 C  
DOCKED: ATOM     36  C   UNL     1      10.408  23.590  14.976 -0.43 +0.00    +0.013 C  
DOCKED: ATOM     37  C   UNL     1      12.053  21.783  15.430 -0.40 +0.00    +0.013 C  
DOCKED: ATOM     38  C   UNL     1       9.940  21.859  16.740 -0.25 -0.00    +0.013 C  
DOCKED: ENDBRANCH  27  35
DOCKED: ENDBRANCH   6  27
DOCKED: TORSDOF 10
DOCKED: TER
DOCKED: ENDMDL
________________________________________________________________________________


    FINAL DOCKED STATE:
    ________________________


Run:   42 / 50
Time taken for this run:   0.000s

DOCKED: MODEL        42
DOCKED: USER    Run = 42
DOCKED: USER
DOCKED: USER    Estimated Free Energy of Binding    =  -3.16 kcal/mol  [=(1)+(2)+(3)-(4)]
DOCKED: USER
DOCKED: USER    (1) Final Intermolecular Energy     =  -6.15 kcal/mol
DOCKED: USER        vdW + Hbond + desolv Energy     =  -5.93 kcal/mol
DOCKED: USER        Electrostatic Energy            =  -0.22 kcal/mol
DOCKED: USER        Moving Ligand-Fixed Receptor    =  -6.15 kcal/mol
DOCKED: USER        Moving Ligand-Moving Receptor   =  +0.00 kcal/mol
DOCKED: USER    (2) Final Total Internal Energy     =  -4.74 kcal/mol
DOCKED: USER    (3) Torsional Free Energy           =  +2.98 kcal/mol
DOCKED: USER    (4) Unbound System's Energy         =  -4.74 kcal/mol
DOCKED: USER
DOCKED: USER
DOCKED: REMARK  Name = 
DOCKED: REMARK  14 active torsions:
DOCKED: REMARK  status: ('A' for Active; 'I' for Inactive)
DOCKED: REMARK    1  A    between atoms: C_1  and  C_2
DOCKED: REMARK    2  A    between atoms: C_6  and  C_7
DOCKED: REMARK    3  A    between atoms: C_10  and  C_11
DOCKED: REMARK    4  A    between atoms: C_11  and  N_12
DOCKED: REMARK    5  A    between atoms: C_13  and  C_15
DOCKED: REMARK    6  A    between atoms: C_17  and  O_18
DOCKED: REMARK    7  A    between atoms: C_21  and  C_23
DOCKED: REMARK    8  A    between atoms: C_23  and  N_24
DOCKED: REMARK    9  A    between atoms: C_23  and  C_29
DOCKED: REMARK   10  A    between atoms: C_25  and  C_27
DOCKED: REMARK   11  A    between atoms: C_27  and  O_28
DOCKED: REMARK   12  A    between atoms: C_29  and  C_30
DOCKED: REMARK   13  A    between atoms: C_29  and  C_31
DOCKED: REMARK   14  A    between atoms: C_29  and  C_32
DOCKED: REMARK                            x       y       z     vdW  Elec       q    Type
DOCKED: REMARK                         _______ _______ _______ _____ _____    ______ ____
DOCKED: USER                              x       y       z     vdW  Elec       q    Type
DOCKED: USER                           _______ _______ _______ _____ _____    ______ ____
DOCKED: ROOT
DOCKED: ATOM      1  C   UNL     1      10.025  21.823  17.909 -0.09 -0.03    +0.164 C  
DOCKED: ATOM      2  C   UNL     1       8.900  20.784  17.699 -0.14 -0.01    +0.065 C  
DOCKED: ATOM      3  C   UNL     1       8.695  20.738  16.200 -0.28 -0.02    +0.134 C  
DOCKED: ATOM      4  C   UNL     1      10.105  20.938  15.656 -0.16 -0.01    +0.140 C  
DOCKED: ATOM      5  N   UNL     1      10.788  21.781  16.641 -0.12 +0.03    -0.286 N  
DOCKED: ATOM      6  C   UNL     1      11.719  22.694  16.152 -0.23 +0.01    +0.237 C  
DOCKED: ATOM      7  O   UNL     1      11.919  22.750  14.934 -0.27 -0.08    -0.274 OA 
DOCKED: ENDROOT
DOCKED: BRANCH   1   9
DOCKED: ATOM      8  N   UNL     1      11.200  20.295  19.517 -0.05 +0.05    -0.310 N  
DOCKED: ATOM      9  C   UNL     1      10.810  21.582  19.227 -0.04 -0.04    +0.234 C  
DOCKED: ATOM     10  O   UNL     1      11.091  22.496  20.001 -0.01 +0.05    -0.274 OA 
DOCKED: ATOM     11  H   UNL     1      10.628  19.522  19.206 +0.03 -0.02    +0.149 HD 
DOCKED: BRANCH   8  12
DOCKED: ATOM     12  C   UNL     1      11.975  20.063  20.706 -0.07 -0.02    +0.139 C  
DOCKED: BRANCH  12  16
DOCKED: ATOM     13  C   UNL     1      15.623  17.765  20.279 -0.26 +0.00    -0.010 A  
DOCKED: ATOM     14  C   UNL     1      15.657  19.164  20.148 -0.24 -0.00    +0.009 A  
DOCKED: ATOM     15  C   UNL     1      14.488  19.930  20.254 -0.17 -0.00    +0.006 A  
DOCKED: ATOM     16  C   UNL     1      13.249  19.309  20.456 -0.12 +0.00    -0.030 A  
DOCKED: ATOM     17  C   UNL     1      13.209  17.917  20.567 -0.09 -0.00    +0.006 A  
DOCKED: ATOM     18  C   UNL     1      14.378  17.163  20.494 -0.13 -0.00    +0.009 A  
DOCKED: BRANCH  13  24
DOCKED: ATOM     19  C   UNL     1      18.615  18.319  21.518 -0.12 -0.01    +0.067 C  
DOCKED: ATOM     20  C   UNL     1      18.126  17.154  20.729 -0.14 -0.01    +0.053 A  
DOCKED: ATOM     21  N   UNL     1      19.050  16.160  20.454 -0.09 +0.08    -0.252 NA 
DOCKED: ATOM     22  C   UNL     1      18.485  15.205  19.756 -0.18 -0.04    +0.156 A  
DOCKED: ATOM     23  S   UNL     1      16.834  15.424  19.383 -0.39 +0.01    -0.075 S  
DOCKED: ATOM     24  C   UNL     1      16.841  16.935  20.229 -0.27 -0.01    +0.042 A  
DOCKED: ENDBRANCH  13  24
DOCKED: ENDBRANCH  12  16
DOCKED: ENDBRANCH   8  12
DOCKED: ENDBRANCH   1   9
DOCKED: BRANCH   3  25
DOCKED: ATOM     25  O   UNL     1       7.799  21.779  15.828 -0.20 +0.12    -0.390 OA 
DOCKED: ATOM     26  H   UNL     1       7.949  22.000  14.895 -0.28 -0.09    +0.210 HD 
DOCKED: ENDBRANCH   3  25
DOCKED: BRANCH   6  27
DOCKED: ATOM     27  C   UNL     1      12.518  23.611  17.127 -0.16 +0.01    +0.164 C  
DOCKED: BRANCH  27  28
DOCKED: ATOM     28  N   UNL     1      11.646  24.361  18.039 -0.06 +0.04    -0.302 N  
DOCKED: ATOM     29  C   UNL     1      10.964  25.517  17.747 -0.17 -0.06    +0.239 C  
DOCKED: ATOM     30  O   UNL     1      11.187  26.236  16.782 -0.54 -0.05    -0.273 OA 
DOCKED: ATOM     31  H   UNL     1      11.425  23.915  18.926 +0.03 -0.03    +0.150 HD 
DOCKED: BRANCH  29  32
DOCKED: ATOM     32  C   UNL     1       9.874  25.850  18.772 -0.10 -0.17    +0.251 C  
DOCKED: BRANCH  32  33
DOCKED: ATOM     33  O   UNL     1       9.653  24.775  19.679 -0.02 +0.16    -0.386 OA 
DOCKED: ATOM     34  H   UNL     1      10.531  24.536  20.029 +0.02 -0.06    +0.210 HD 
DOCKED: ENDBRANCH  32  33
DOCKED: ENDBRANCH  29  32
DOCKED: ENDBRANCH  27  28
DOCKED: BRANCH  27  35
DOCKED: ATOM     35  C   UNL     1      13.724  22.930  17.866 -0.25 +0.00    -0.011 C  
DOCKED: ATOM     36  C   UNL     1      13.703  21.413  17.577 -0.30 -0.00    +0.013 C  
DOCKED: ATOM     37  C   UNL     1      15.062  23.476  17.306 -0.18 -0.00    +0.013 C  
DOCKED: ATOM     38  C   UNL     1      13.738  23.160  19.387 -0.09 -0.00    +0.013 C  
DOCKED: ENDBRANCH  27  35
DOCKED: ENDBRANCH   6  27
DOCKED: TORSDOF 10
DOCKED: TER
DOCKED: ENDMDL
________________________________________________________________________________


    FINAL DOCKED STATE:
    ________________________


Run:   43 / 50
Time taken for this run:   0.000s

DOCKED: MODEL        43
DOCKED: USER    Run = 43
DOCKED: USER
DOCKED: USER    Estimated Free Energy of Binding    =  -3.14 kcal/mol  [=(1)+(2)+(3)-(4)]
DOCKED: USER
DOCKED: USER    (1) Final Intermolecular Energy     =  -6.12 kcal/mol
DOCKED: USER        vdW + Hbond + desolv Energy     =  -5.69 kcal/mol
DOCKED: USER        Electrostatic Energy            =  -0.43 kcal/mol
DOCKED: USER        Moving Ligand-Fixed Receptor    =  -6.12 kcal/mol
DOCKED: USER        Moving Ligand-Moving Receptor   =  +0.00 kcal/mol
DOCKED: USER    (2) Final Total Internal Energy     =  -4.82 kcal/mol
DOCKED: USER    (3) Torsional Free Energy           =  +2.98 kcal/mol
DOCKED: USER    (4) Unbound System's Energy         =  -4.82 kcal/mol
DOCKED: USER
DOCKED: USER
DOCKED: REMARK  Name = 
DOCKED: REMARK  14 active torsions:
DOCKED: REMARK  status: ('A' for Active; 'I' for Inactive)
DOCKED: REMARK    1  A    between atoms: C_1  and  C_2
DOCKED: REMARK    2  A    between atoms: C_6  and  C_7
DOCKED: REMARK    3  A    between atoms: C_10  and  C_11
DOCKED: REMARK    4  A    between atoms: C_11  and  N_12
DOCKED: REMARK    5  A    between atoms: C_13  and  C_15
DOCKED: REMARK    6  A    between atoms: C_17  and  O_18
DOCKED: REMARK    7  A    between atoms: C_21  and  C_23
DOCKED: REMARK    8  A    between atoms: C_23  and  N_24
DOCKED: REMARK    9  A    between atoms: C_23  and  C_29
DOCKED: REMARK   10  A    between atoms: C_25  and  C_27
DOCKED: REMARK   11  A    between atoms: C_27  and  O_28
DOCKED: REMARK   12  A    between atoms: C_29  and  C_30
DOCKED: REMARK   13  A    between atoms: C_29  and  C_31
DOCKED: REMARK   14  A    between atoms: C_29  and  C_32
DOCKED: REMARK                            x       y       z     vdW  Elec       q    Type
DOCKED: REMARK                         _______ _______ _______ _____ _____    ______ ____
DOCKED: USER                              x       y       z     vdW  Elec       q    Type
DOCKED: USER                           _______ _______ _______ _____ _____    ______ ____
DOCKED: ROOT
DOCKED: ATOM      1  C   UNL     1      12.320  24.495  17.893 -0.14 -0.01    +0.164 C  
DOCKED: ATOM      2  C   UNL     1      13.671  23.850  17.510 -0.15 +0.00    +0.065 C  
DOCKED: ATOM      3  C   UNL     1      14.336  23.536  18.832 -0.11 -0.01    +0.134 C  
DOCKED: ATOM      4  C   UNL     1      13.162  23.148  19.722 -0.05 -0.02    +0.140 C  
DOCKED: ATOM      5  N   UNL     1      12.023  23.927  19.229 -0.01 +0.05    -0.286 N  
DOCKED: ATOM      6  C   UNL     1      11.098  24.362  20.175 -0.01 -0.06    +0.237 C  
DOCKED: ATOM      7  O   UNL     1      11.279  24.075  21.364 -0.00 +0.06    -0.274 OA 
DOCKED: ENDROOT
DOCKED: BRANCH   1   9
DOCKED: ATOM      8  N   UNL     1      10.784  23.048  16.534 -0.13 +0.03    -0.310 N  
DOCKED: ATOM      9  C   UNL     1      11.247  24.319  16.785 -0.19 -0.00    +0.234 C  
DOCKED: ATOM     10  O   UNL     1      10.806  25.270  16.140 -0.38 -0.03    -0.274 OA 
DOCKED: ATOM     11  H   UNL     1      11.403  22.260  16.667 +0.07 -0.01    +0.149 HD 
DOCKED: BRANCH   8  12
DOCKED: ATOM     12  C   UNL     1       9.751  22.875  15.548 -0.32 -0.02    +0.139 C  
DOCKED: BRANCH  12  16
DOCKED: ATOM     13  C   UNL     1       7.348  19.369  16.393 -0.22 +0.00    -0.010 A  
DOCKED: ATOM     14  C   UNL     1       8.706  19.225  16.060 -0.32 -0.00    +0.009 A  
DOCKED: ATOM     15  C   UNL     1       9.500  20.339  15.755 -0.33 -0.00    +0.006 A  
DOCKED: ATOM     16  C   UNL     1       8.943  21.623  15.738 -0.30 +0.01    -0.030 A  
DOCKED: ATOM     17  C   UNL     1       7.589  21.769  16.050 -0.30 -0.00    +0.006 A  
DOCKED: ATOM     18  C   UNL     1       6.812  20.663  16.384 -0.21 -0.00    +0.009 A  
DOCKED: BRANCH  13  24
DOCKED: ATOM     19  C   UNL     1       4.131  18.878  15.944 -0.18 -0.01    +0.067 C  
DOCKED: ATOM     20  C   UNL     1       5.131  18.000  16.612 -0.22 -0.00    +0.053 A  
DOCKED: ATOM     21  N   UNL     1       4.657  16.809  17.138 -0.14 +0.02    -0.252 NA 
DOCKED: ATOM     22  C   UNL     1       5.640  16.143  17.693 -0.17 -0.00    +0.156 A  
DOCKED: ATOM     23  S   UNL     1       7.178  16.881  17.627 -0.22 +0.00    -0.075 S  
DOCKED: ATOM     24  C   UNL     1       6.499  18.225  16.773 -0.23 -0.00    +0.042 A  
DOCKED: ENDBRANCH  13  24
DOCKED: ENDBRANCH  12  16
DOCKED: ENDBRANCH   8  12
DOCKED: ENDBRANCH   1   9
DOCKED: BRANCH   3  25
DOCKED: ATOM     25  O   UNL     1      15.023  24.696  19.286 -0.01 +0.03    -0.390 OA 
DOCKED: ATOM     26  H   UNL     1      15.169  24.618  20.242 +0.03 -0.02    +0.210 HD 
DOCKED: ENDBRANCH   3  25
DOCKED: BRANCH   6  27
DOCKED: ATOM     27  C   UNL     1       9.838  25.170  19.740 -0.05 -0.07    +0.164 C  
DOCKED: BRANCH  27  28
DOCKED: ATOM     28  N   UNL     1      10.169  26.310  18.877 -0.08 +0.21    -0.302 N  
DOCKED: ATOM     29  C   UNL     1      10.752  27.489  19.272 -0.07 -0.15    +0.239 C  
DOCKED: ATOM     30  O   UNL     1      10.837  27.873  20.432 -0.02 +0.12    -0.273 OA 
DOCKED: ATOM     31  H   UNL     1      10.077  26.162  17.874 +0.01 -0.12    +0.150 HD 
DOCKED: BRANCH  29  32
DOCKED: ATOM     32  C   UNL     1      11.291  28.319  18.102 -0.08 -0.13    +0.251 C  
DOCKED: BRANCH  32  33
DOCKED: ATOM     33  O   UNL     1      11.338  27.564  16.896 -0.50 -0.04    -0.386 OA 
DOCKED: ATOM     34  H   UNL     1      10.415  27.324  16.694 -0.30 -0.22    +0.210 HD 
DOCKED: ENDBRANCH  32  33
DOCKED: ENDBRANCH  29  32
DOCKED: ENDBRANCH  27  28
DOCKED: BRANCH  27  35
DOCKED: ATOM     35  C   UNL     1       8.642  24.318  19.185 -0.09 +0.01    -0.011 C  
DOCKED: ATOM     36  C   UNL     1       9.056  22.831  19.143 -0.06 -0.00    +0.013 C  
DOCKED: ATOM     37  C   UNL     1       7.431  24.420  20.148 -0.05 -0.01    +0.013 C  
DOCKED: ATOM     38  C   UNL     1       8.155  24.753  17.792 -0.15 -0.01    +0.013 C  
DOCKED: ENDBRANCH  27  35
DOCKED: ENDBRANCH   6  27
DOCKED: TORSDOF 10
DOCKED: TER
DOCKED: ENDMDL
________________________________________________________________________________


    FINAL DOCKED STATE:
    ________________________


Run:   44 / 50
Time taken for this run:   0.000s

DOCKED: MODEL        44
DOCKED: USER    Run = 44
DOCKED: USER
DOCKED: USER    Estimated Free Energy of Binding    =  -2.58 kcal/mol  [=(1)+(2)+(3)-(4)]
DOCKED: USER
DOCKED: USER    (1) Final Intermolecular Energy     =  -5.56 kcal/mol
DOCKED: USER        vdW + Hbond + desolv Energy     =  -5.59 kcal/mol
DOCKED: USER        Electrostatic Energy            =  +0.03 kcal/mol
DOCKED: USER        Moving Ligand-Fixed Receptor    =  -5.56 kcal/mol
DOCKED: USER        Moving Ligand-Moving Receptor   =  +0.00 kcal/mol
DOCKED: USER    (2) Final Total Internal Energy     =  -5.28 kcal/mol
DOCKED: USER    (3) Torsional Free Energy           =  +2.98 kcal/mol
DOCKED: USER    (4) Unbound System's Energy         =  -5.28 kcal/mol
DOCKED: USER
DOCKED: USER
DOCKED: REMARK  Name = 
DOCKED: REMARK  14 active torsions:
DOCKED: REMARK  status: ('A' for Active; 'I' for Inactive)
DOCKED: REMARK    1  A    between atoms: C_1  and  C_2
DOCKED: REMARK    2  A    between atoms: C_6  and  C_7
DOCKED: REMARK    3  A    between atoms: C_10  and  C_11
DOCKED: REMARK    4  A    between atoms: C_11  and  N_12
DOCKED: REMARK    5  A    between atoms: C_13  and  C_15
DOCKED: REMARK    6  A    between atoms: C_17  and  O_18
DOCKED: REMARK    7  A    between atoms: C_21  and  C_23
DOCKED: REMARK    8  A    between atoms: C_23  and  N_24
DOCKED: REMARK    9  A    between atoms: C_23  and  C_29
DOCKED: REMARK   10  A    between atoms: C_25  and  C_27
DOCKED: REMARK   11  A    between atoms: C_27  and  O_28
DOCKED: REMARK   12  A    between atoms: C_29  and  C_30
DOCKED: REMARK   13  A    between atoms: C_29  and  C_31
DOCKED: REMARK   14  A    between atoms: C_29  and  C_32
DOCKED: REMARK                            x       y       z     vdW  Elec       q    Type
DOCKED: REMARK                         _______ _______ _______ _____ _____    ______ ____
DOCKED: USER                              x       y       z     vdW  Elec       q    Type
DOCKED: USER                           _______ _______ _______ _____ _____    ______ ____
DOCKED: ROOT
DOCKED: ATOM      1  C   UNL     1       9.485  20.800  18.000 -0.10 -0.03    +0.164 C  
DOCKED: ATOM      2  C   UNL     1       9.475  19.277  17.734 -0.20 -0.01    +0.065 C  
DOCKED: ATOM      3  C   UNL     1       8.878  19.132  16.352 -0.29 -0.02    +0.134 C  
DOCKED: ATOM      4  C   UNL     1       9.409  20.360  15.619 -0.27 -0.02    +0.140 C  
DOCKED: ATOM      5  N   UNL     1       9.552  21.396  16.646 -0.11 +0.05    -0.286 N  
DOCKED: ATOM      6  C   UNL     1       9.297  22.708  16.257 -0.23 -0.05    +0.237 C  
DOCKED: ATOM      7  O   UNL     1       8.968  22.932  15.087 -0.32 +0.07    -0.274 OA 
DOCKED: ENDROOT
DOCKED: BRANCH   1   9
DOCKED: ATOM      8  N   UNL     1      11.873  20.817  18.770 -0.06 +0.05    -0.310 N  
DOCKED: ATOM      9  C   UNL     1      10.580  21.213  19.020 -0.05 -0.04    +0.234 C  
DOCKED: ATOM     10  O   UNL     1      10.326  21.876  20.025 -0.01 +0.05    -0.274 OA 
DOCKED: ATOM     11  H   UNL     1      12.040  19.947  18.284 +0.04 -0.02    +0.149 HD 
DOCKED: BRANCH   8  12
DOCKED: ATOM     12  C   UNL     1      12.908  21.238  19.676 -0.10 -0.02    +0.139 C  
DOCKED: BRANCH  12  16
DOCKED: ATOM     13  C   UNL     1      15.838  23.797  17.768 -0.25 +0.00    -0.010 A  
DOCKED: ATOM     14  C   UNL     1      15.443  22.600  17.147 -0.23 -0.00    +0.009 A  
DOCKED: ATOM     15  C   UNL     1      14.518  21.740  17.754 -0.33 -0.00    +0.006 A  
DOCKED: ATOM     16  C   UNL     1      13.995  22.039  19.018 -0.16 +0.00    -0.030 A  
DOCKED: ATOM     17  C   UNL     1      14.400  23.218  19.648 -0.07 -0.00    +0.006 A  
DOCKED: ATOM     18  C   UNL     1      15.294  24.086  19.025 -0.10 -0.00    +0.009 A  
DOCKED: BRANCH  13  24
DOCKED: ATOM     19  C   UNL     1      15.346  26.893  16.784 -0.09 +0.02    +0.067 C  
DOCKED: ATOM     20  C   UNL     1      16.578  26.060  16.688 -0.24 +0.00    +0.053 A  
DOCKED: ATOM     21  N   UNL     1      17.679  26.651  16.090 -0.45 -0.03    -0.252 NA 
DOCKED: ATOM     22  C   UNL     1      18.684  25.809  16.073 -0.19 -0.01    +0.156 A  
DOCKED: ATOM     23  S   UNL     1      18.388  24.274  16.760 -0.34 +0.02    -0.075 S  
DOCKED: ATOM     24  C   UNL     1      16.766  24.751  17.132 -0.26 -0.00    +0.042 A  
DOCKED: ENDBRANCH  13  24
DOCKED: ENDBRANCH  12  16
DOCKED: ENDBRANCH   8  12
DOCKED: ENDBRANCH   1   9
DOCKED: BRANCH   3  25
DOCKED: ATOM     25  O   UNL     1       7.460  19.118  16.464 -0.15 +0.04    -0.390 OA 
DOCKED: ATOM     26  H   UNL     1       7.181  19.887  16.986 +0.07 -0.03    +0.210 HD 
DOCKED: ENDBRANCH   3  25
DOCKED: BRANCH   6  27
DOCKED: ATOM     27  C   UNL     1       9.454  23.881  17.272 -0.18 -0.06    +0.164 C  
DOCKED: BRANCH  27  28
DOCKED: ATOM     28  N   UNL     1       8.726  23.645  18.525 -0.04 +0.12    -0.302 N  
DOCKED: ATOM     29  C   UNL     1       7.415  23.256  18.644 -0.05 -0.10    +0.239 C  
DOCKED: ATOM     30  O   UNL     1       6.585  23.308  17.745 -0.08 +0.13    -0.273 OA 
DOCKED: ATOM     31  H   UNL     1       9.281  23.642  19.378 +0.02 -0.05    +0.150 HD 
DOCKED: BRANCH  29  32
DOCKED: ATOM     32  C   UNL     1       7.060  22.749  20.046 -0.01 -0.08    +0.251 C  
DOCKED: BRANCH  32  33
DOCKED: ATOM     33  O   UNL     1       8.128  22.947  20.967 +0.00 +0.10    -0.386 OA 
DOCKED: ATOM     34  H   UNL     1       8.898  22.486  20.586 +0.01 -0.05    +0.210 HD 
DOCKED: ENDBRANCH  32  33
DOCKED: ENDBRANCH  29  32
DOCKED: ENDBRANCH  27  28
DOCKED: BRANCH  27  35
DOCKED: ATOM     35  C   UNL     1      10.922  24.383  17.510 -0.22 +0.00    -0.011 C  
DOCKED: ATOM     36  C   UNL     1      11.895  23.510  16.687 -0.27 +0.00    +0.013 C  
DOCKED: ATOM     37  C   UNL     1      11.073  25.836  16.993 -0.20 -0.00    +0.013 C  
DOCKED: ATOM     38  C   UNL     1      11.356  24.376  18.986 -0.08 -0.00    +0.013 C  
DOCKED: ENDBRANCH  27  35
DOCKED: ENDBRANCH   6  27
DOCKED: TORSDOF 10
DOCKED: TER
DOCKED: ENDMDL
________________________________________________________________________________


    FINAL DOCKED STATE:
    ________________________


Run:   45 / 50
Time taken for this run:   0.000s

DOCKED: MODEL        45
DOCKED: USER    Run = 45
DOCKED: USER
DOCKED: USER    Estimated Free Energy of Binding    =  -3.11 kcal/mol  [=(1)+(2)+(3)-(4)]
DOCKED: USER
DOCKED: USER    (1) Final Intermolecular Energy     =  -6.09 kcal/mol
DOCKED: USER        vdW + Hbond + desolv Energy     =  -6.01 kcal/mol
DOCKED: USER        Electrostatic Energy            =  -0.08 kcal/mol
DOCKED: USER        Moving Ligand-Fixed Receptor    =  -6.09 kcal/mol
DOCKED: USER        Moving Ligand-Moving Receptor   =  +0.00 kcal/mol
DOCKED: USER    (2) Final Total Internal Energy     =  -4.76 kcal/mol
DOCKED: USER    (3) Torsional Free Energy           =  +2.98 kcal/mol
DOCKED: USER    (4) Unbound System's Energy         =  -4.76 kcal/mol
DOCKED: USER
DOCKED: USER
DOCKED: REMARK  Name = 
DOCKED: REMARK  14 active torsions:
DOCKED: REMARK  status: ('A' for Active; 'I' for Inactive)
DOCKED: REMARK    1  A    between atoms: C_1  and  C_2
DOCKED: REMARK    2  A    between atoms: C_6  and  C_7
DOCKED: REMARK    3  A    between atoms: C_10  and  C_11
DOCKED: REMARK    4  A    between atoms: C_11  and  N_12
DOCKED: REMARK    5  A    between atoms: C_13  and  C_15
DOCKED: REMARK    6  A    between atoms: C_17  and  O_18
DOCKED: REMARK    7  A    between atoms: C_21  and  C_23
DOCKED: REMARK    8  A    between atoms: C_23  and  N_24
DOCKED: REMARK    9  A    between atoms: C_23  and  C_29
DOCKED: REMARK   10  A    between atoms: C_25  and  C_27
DOCKED: REMARK   11  A    between atoms: C_27  and  O_28
DOCKED: REMARK   12  A    between atoms: C_29  and  C_30
DOCKED: REMARK   13  A    between atoms: C_29  and  C_31
DOCKED: REMARK   14  A    between atoms: C_29  and  C_32
DOCKED: REMARK                            x       y       z     vdW  Elec       q    Type
DOCKED: REMARK                         _______ _______ _______ _____ _____    ______ ____
DOCKED: USER                              x       y       z     vdW  Elec       q    Type
DOCKED: USER                           _______ _______ _______ _____ _____    ______ ____
DOCKED: ROOT
DOCKED: ATOM      1  C   UNL     1      12.521  20.737  19.680 -0.10 -0.02    +0.164 C  
DOCKED: ATOM      2  C   UNL     1      13.808  20.862  20.526 -0.10 -0.01    +0.065 C  
DOCKED: ATOM      3  C   UNL     1      14.938  20.708  19.532 -0.17 -0.01    +0.134 C  
DOCKED: ATOM      4  C   UNL     1      14.389  21.387  18.283 -0.25 -0.02    +0.140 C  
DOCKED: ATOM      5  N   UNL     1      12.939  21.181  18.331 -0.10 +0.04    -0.286 N  
DOCKED: ATOM      6  C   UNL     1      12.286  21.006  17.113 -0.16 -0.03    +0.237 C  
DOCKED: ATOM      7  O   UNL     1      12.949  21.031  16.070 -0.30 +0.03    -0.274 OA 
DOCKED: ENDROOT
DOCKED: BRANCH   1   9
DOCKED: ATOM      8  N   UNL     1      10.704  22.466  19.615 -0.00 +0.06    -0.310 N  
DOCKED: ATOM      9  C   UNL     1      11.314  21.464  20.333 -0.03 -0.04    +0.234 C  
DOCKED: ATOM     10  O   UNL     1      10.895  21.168  21.451 -0.01 +0.04    -0.274 OA 
DOCKED: ATOM     11  H   UNL     1      11.254  23.026  18.979 +0.03 -0.03    +0.149 HD 
DOCKED: BRANCH   8  12
DOCKED: ATOM     12  C   UNL     1       9.550  23.113  20.182 -0.02 -0.04    +0.139 C  
DOCKED: BRANCH  12  16
DOCKED: ATOM     13  C   UNL     1       6.383  23.245  17.228 -0.18 +0.00    -0.010 A  
DOCKED: ATOM     14  C   UNL     1       6.928  24.441  17.726 -0.16 -0.01    +0.009 A  
DOCKED: ATOM     15  C   UNL     1       7.934  24.429  18.702 -0.12 -0.00    +0.006 A  
DOCKED: ATOM     16  C   UNL     1       8.392  23.217  19.232 -0.04 +0.01    -0.030 A  
DOCKED: ATOM     17  C   UNL     1       7.840  22.026  18.754 -0.05 -0.00    +0.006 A  
DOCKED: ATOM     18  C   UNL     1       6.864  22.043  17.760 -0.09 -0.00    +0.009 A  
DOCKED: BRANCH  13  24
DOCKED: ATOM     19  C   UNL     1       4.395  25.627  16.146 -0.23 -0.06    +0.067 C  
DOCKED: ATOM     20  C   UNL     1       4.497  24.210  15.696 -0.26 -0.03    +0.053 A  
DOCKED: ATOM     21  N   UNL     1       3.629  23.815  14.690 -0.21 +0.10    -0.252 NA 
DOCKED: ATOM     22  C   UNL     1       3.828  22.553  14.398 -0.24 -0.05    +0.156 A  
DOCKED: ATOM     23  S   UNL     1       5.046  21.759  15.291 -0.37 +0.02    -0.075 S  
DOCKED: ATOM     24  C   UNL     1       5.365  23.222  16.161 -0.24 -0.02    +0.042 A  
DOCKED: ENDBRANCH  13  24
DOCKED: ENDBRANCH  12  16
DOCKED: ENDBRANCH   8  12
DOCKED: ENDBRANCH   1   9
DOCKED: BRANCH   3  25
DOCKED: ATOM     25  O   UNL     1      15.200  19.322  19.347 -0.29 +0.02    -0.390 OA 
DOCKED: ATOM     26  H   UNL     1      14.430  18.816  19.653 +0.05 -0.03    +0.210 HD 
DOCKED: ENDBRANCH   3  25
DOCKED: BRANCH   6  27
DOCKED: ATOM     27  C   UNL     1      10.740  20.811  17.064 -0.20 -0.02    +0.164 C  
DOCKED: BRANCH  27  28
DOCKED: ATOM     28  N   UNL     1      10.039  21.984  16.529 -0.10 +0.05    -0.302 N  
DOCKED: ATOM     29  C   UNL     1      10.542  23.258  16.428 -0.22 -0.03    +0.239 C  
DOCKED: ATOM     30  O   UNL     1      11.541  23.663  17.008 -0.15 +0.01    -0.273 OA 
DOCKED: ATOM     31  H   UNL     1       9.147  21.810  16.072 +0.06 -0.03    +0.150 HD 
DOCKED: BRANCH  29  32
DOCKED: ATOM     32  C   UNL     1       9.714  24.163  15.510 -0.05 -0.04    +0.251 C  
DOCKED: BRANCH  32  33
DOCKED: ATOM     33  O   UNL     1       8.421  23.623  15.259 +0.00 +0.13    -0.386 OA 
DOCKED: ATOM     34  H   UNL     1       8.501  23.110  14.434 -0.33 -0.08    +0.210 HD 
DOCKED: ENDBRANCH  32  33
DOCKED: ENDBRANCH  29  32
DOCKED: ENDBRANCH  27  28
DOCKED: BRANCH  27  35
DOCKED: ATOM     35  C   UNL     1      10.245  19.466  16.424 -0.40 +0.00    -0.011 C  
DOCKED: ATOM     36  C   UNL     1      11.174  19.093  15.247 -0.50 -0.00    +0.013 C  
DOCKED: ATOM     37  C   UNL     1      10.349  18.318  17.460 -0.09 -0.00    +0.013 C  
DOCKED: ATOM     38  C   UNL     1       8.788  19.504  15.931 -0.39 -0.00    +0.013 C  
DOCKED: ENDBRANCH  27  35
DOCKED: ENDBRANCH   6  27
DOCKED: TORSDOF 10
DOCKED: TER
DOCKED: ENDMDL
________________________________________________________________________________


    FINAL DOCKED STATE:
    ________________________


Run:   46 / 50
Time taken for this run:   0.000s

DOCKED: MODEL        46
DOCKED: USER    Run = 46
DOCKED: USER
DOCKED: USER    Estimated Free Energy of Binding    =  -4.11 kcal/mol  [=(1)+(2)+(3)-(4)]
DOCKED: USER
DOCKED: USER    (1) Final Intermolecular Energy     =  -7.10 kcal/mol
DOCKED: USER        vdW + Hbond + desolv Energy     =  -6.81 kcal/mol
DOCKED: USER        Electrostatic Energy            =  -0.28 kcal/mol
DOCKED: USER        Moving Ligand-Fixed Receptor    =  -7.10 kcal/mol
DOCKED: USER        Moving Ligand-Moving Receptor   =  +0.00 kcal/mol
DOCKED: USER    (2) Final Total Internal Energy     =  -3.89 kcal/mol
DOCKED: USER    (3) Torsional Free Energy           =  +2.98 kcal/mol
DOCKED: USER    (4) Unbound System's Energy         =  -3.89 kcal/mol
DOCKED: USER
DOCKED: USER
DOCKED: REMARK  Name = 
DOCKED: REMARK  14 active torsions:
DOCKED: REMARK  status: ('A' for Active; 'I' for Inactive)
DOCKED: REMARK    1  A    between atoms: C_1  and  C_2
DOCKED: REMARK    2  A    between atoms: C_6  and  C_7
DOCKED: REMARK    3  A    between atoms: C_10  and  C_11
DOCKED: REMARK    4  A    between atoms: C_11  and  N_12
DOCKED: REMARK    5  A    between atoms: C_13  and  C_15
DOCKED: REMARK    6  A    between atoms: C_17  and  O_18
DOCKED: REMARK    7  A    between atoms: C_21  and  C_23
DOCKED: REMARK    8  A    between atoms: C_23  and  N_24
DOCKED: REMARK    9  A    between atoms: C_23  and  C_29
DOCKED: REMARK   10  A    between atoms: C_25  and  C_27
DOCKED: REMARK   11  A    between atoms: C_27  and  O_28
DOCKED: REMARK   12  A    between atoms: C_29  and  C_30
DOCKED: REMARK   13  A    between atoms: C_29  and  C_31
DOCKED: REMARK   14  A    between atoms: C_29  and  C_32
DOCKED: REMARK                            x       y       z     vdW  Elec       q    Type
DOCKED: REMARK                         _______ _______ _______ _____ _____    ______ ____
DOCKED: USER                              x       y       z     vdW  Elec       q    Type
DOCKED: USER                           _______ _______ _______ _____ _____    ______ ____
DOCKED: ROOT
DOCKED: ATOM      1  C   UNL     1      13.030  26.489  17.904 -0.15 +0.02    +0.164 C  
DOCKED: ATOM      2  C   UNL     1      13.003  27.936  18.445 -0.14 +0.00    +0.065 C  
DOCKED: ATOM      3  C   UNL     1      11.569  28.385  18.272 -0.16 -0.05    +0.134 C  
DOCKED: ATOM      4  C   UNL     1      10.777  27.110  18.540 -0.11 -0.09    +0.140 C  
DOCKED: ATOM      5  N   UNL     1      11.640  26.013  18.096 -0.12 +0.05    -0.286 N  
DOCKED: ATOM      6  C   UNL     1      11.013  24.904  17.535 -0.17 -0.04    +0.237 C  
DOCKED: ATOM      7  O   UNL     1       9.780  24.899  17.439 -0.17 +0.14    -0.274 OA 
DOCKED: ENDROOT
DOCKED: BRANCH   1   9
DOCKED: ATOM      8  N   UNL     1      15.083  25.062  17.685 -0.09 -0.02    -0.310 N  
DOCKED: ATOM      9  C   UNL     1      14.170  25.644  18.534 -0.08 -0.00    +0.234 C  
DOCKED: ATOM     10  O   UNL     1      14.279  25.489  19.750 -0.01 +0.03    -0.274 OA 
DOCKED: ATOM     11  H   UNL     1      14.787  24.772  16.763 +0.07 +0.03    +0.149 HD 
DOCKED: BRANCH   8  12
DOCKED: ATOM     12  C   UNL     1      16.177  24.321  18.255 -0.16 -0.01    +0.139 C  
DOCKED: BRANCH  12  16
DOCKED: ATOM     13  C   UNL     1      19.850  25.116  16.098 -0.19 +0.00    -0.010 A  
DOCKED: ATOM     14  C   UNL     1      19.792  24.053  17.016 -0.23 -0.00    +0.009 A  
DOCKED: ATOM     15  C   UNL     1      18.626  23.790  17.747 -0.16 -0.00    +0.006 A  
DOCKED: ATOM     16  C   UNL     1      17.500  24.610  17.606 -0.22 +0.00    -0.030 A  
DOCKED: ATOM     17  C   UNL     1      17.560  25.679  16.709 -0.27 -0.00    +0.006 A  
DOCKED: ATOM     18  C   UNL     1      18.710  25.916  15.960 -0.24 -0.00    +0.009 A  
DOCKED: BRANCH  13  24
DOCKED: ATOM     19  C   UNL     1      21.252  27.970  15.271 -0.11 -0.01    +0.067 C  
DOCKED: ATOM     20  C   UNL     1      21.646  26.584  14.891 -0.15 -0.01    +0.053 A  
DOCKED: ATOM     21  N   UNL     1      22.747  26.459  14.059 -0.10 +0.06    -0.252 NA 
DOCKED: ATOM     22  C   UNL     1      22.976  25.193  13.808 -0.16 -0.05    +0.156 A  
DOCKED: ATOM     23  S   UNL     1      21.907  24.078  14.536 -0.40 +0.03    -0.075 S  
DOCKED: ATOM     24  C   UNL     1      21.042  25.385  15.272 -0.20 -0.01    +0.042 A  
DOCKED: ENDBRANCH  13  24
DOCKED: ENDBRANCH  12  16
DOCKED: ENDBRANCH   8  12
DOCKED: ENDBRANCH   1   9
DOCKED: BRANCH   3  25
DOCKED: ATOM     25  O   UNL     1      11.401  28.881  16.950 -0.56 -0.02    -0.390 OA 
DOCKED: ATOM     26  H   UNL     1      10.452  28.907  16.746 -0.42 -0.32    +0.210 HD 
DOCKED: ENDBRANCH   3  25
DOCKED: BRANCH   6  27
DOCKED: ATOM     27  C   UNL     1      11.847  23.675  17.062 -0.18 -0.00    +0.164 C  
DOCKED: BRANCH  27  28
DOCKED: ATOM     28  N   UNL     1      12.443  22.933  18.179 -0.05 +0.03    -0.302 N  
DOCKED: ATOM     29  C   UNL     1      13.698  22.374  18.209 -0.16 -0.03    +0.239 C  
DOCKED: ATOM     30  O   UNL     1      14.400  22.179  17.225 -0.28 +0.04    -0.273 OA 
DOCKED: ATOM     31  H   UNL     1      11.931  22.945  19.057 +0.03 -0.02    +0.150 HD 
DOCKED: BRANCH  29  32
DOCKED: ATOM     32  C   UNL     1      14.155  21.990  19.620 -0.09 -0.03    +0.251 C  
DOCKED: BRANCH  32  33
DOCKED: ATOM     33  O   UNL     1      13.413  22.677  20.622 -0.00 +0.06    -0.386 OA 
DOCKED: ATOM     34  H   UNL     1      13.412  23.616  20.359 +0.02 -0.03    +0.210 HD 
DOCKED: ENDBRANCH  32  33
DOCKED: ENDBRANCH  29  32
DOCKED: ENDBRANCH  27  28
DOCKED: BRANCH  27  35
DOCKED: ATOM     35  C   UNL     1      11.145  22.736  16.018 -0.36 +0.00    -0.011 C  
DOCKED: ATOM     36  C   UNL     1      10.029  21.938  16.726 -0.25 -0.00    +0.013 C  
DOCKED: ATOM     37  C   UNL     1      10.460  23.588  14.919 -0.42 +0.00    +0.013 C  
DOCKED: ATOM     38  C   UNL     1      12.100  21.761  15.309 -0.38 +0.00    +0.013 C  
DOCKED: ENDBRANCH  27  35
DOCKED: ENDBRANCH   6  27
DOCKED: TORSDOF 10
DOCKED: TER
DOCKED: ENDMDL
________________________________________________________________________________


    FINAL DOCKED STATE:
    ________________________


Run:   47 / 50
Time taken for this run:   0.000s

DOCKED: MODEL        47
DOCKED: USER    Run = 47
DOCKED: USER
DOCKED: USER    Estimated Free Energy of Binding    =  -3.06 kcal/mol  [=(1)+(2)+(3)-(4)]
DOCKED: USER
DOCKED: USER    (1) Final Intermolecular Energy     =  -6.04 kcal/mol
DOCKED: USER        vdW + Hbond + desolv Energy     =  -5.57 kcal/mol
DOCKED: USER        Electrostatic Energy            =  -0.48 kcal/mol
DOCKED: USER        Moving Ligand-Fixed Receptor    =  -6.04 kcal/mol
DOCKED: USER        Moving Ligand-Moving Receptor   =  +0.00 kcal/mol
DOCKED: USER    (2) Final Total Internal Energy     =  -4.77 kcal/mol
DOCKED: USER    (3) Torsional Free Energy           =  +2.98 kcal/mol
DOCKED: USER    (4) Unbound System's Energy         =  -4.77 kcal/mol
DOCKED: USER
DOCKED: USER
DOCKED: REMARK  Name = 
DOCKED: REMARK  14 active torsions:
DOCKED: REMARK  status: ('A' for Active; 'I' for Inactive)
DOCKED: REMARK    1  A    between atoms: C_1  and  C_2
DOCKED: REMARK    2  A    between atoms: C_6  and  C_7
DOCKED: REMARK    3  A    between atoms: C_10  and  C_11
DOCKED: REMARK    4  A    between atoms: C_11  and  N_12
DOCKED: REMARK    5  A    between atoms: C_13  and  C_15
DOCKED: REMARK    6  A    between atoms: C_17  and  O_18
DOCKED: REMARK    7  A    between atoms: C_21  and  C_23
DOCKED: REMARK    8  A    between atoms: C_23  and  N_24
DOCKED: REMARK    9  A    between atoms: C_23  and  C_29
DOCKED: REMARK   10  A    between atoms: C_25  and  C_27
DOCKED: REMARK   11  A    between atoms: C_27  and  O_28
DOCKED: REMARK   12  A    between atoms: C_29  and  C_30
DOCKED: REMARK   13  A    between atoms: C_29  and  C_31
DOCKED: REMARK   14  A    between atoms: C_29  and  C_32
DOCKED: REMARK                            x       y       z     vdW  Elec       q    Type
DOCKED: REMARK                         _______ _______ _______ _____ _____    ______ ____
DOCKED: USER                              x       y       z     vdW  Elec       q    Type
DOCKED: USER                           _______ _______ _______ _____ _____    ______ ____
DOCKED: ROOT
DOCKED: ATOM      1  C   UNL     1       6.388  31.140  18.335 -0.18 -0.15    +0.164 C  
DOCKED: ATOM      2  C   UNL     1       5.260  30.248  17.770 -0.29 -0.07    +0.065 C  
DOCKED: ATOM      3  C   UNL     1       4.977  30.810  16.395 -0.24 -0.09    +0.134 C  
DOCKED: ATOM      4  C   UNL     1       6.356  31.252  15.916 -0.40 -0.08    +0.140 C  
DOCKED: ATOM      5  N   UNL     1       7.085  31.639  17.127 -0.16 +0.18    -0.286 N  
DOCKED: ATOM      6  C   UNL     1       7.983  32.697  17.011 -0.20 -0.03    +0.237 C  
DOCKED: ATOM      7  O   UNL     1       8.118  33.249  15.914 -0.28 -0.11    -0.274 OA 
DOCKED: ENDROOT
DOCKED: BRANCH   1   9
DOCKED: ATOM      8  N   UNL     1       7.918  29.271  19.017 +0.16 +0.50    -0.310 N  
DOCKED: ATOM      9  C   UNL     1       7.243  30.406  19.403 -0.08 -0.22    +0.234 C  
DOCKED: ATOM     10  O   UNL     1       7.333  30.807  20.563 -0.03 +0.18    -0.274 OA 
DOCKED: ATOM     11  H   UNL     1       7.525  28.682  18.296 -0.37 -0.45    +0.149 HD 
DOCKED: BRANCH   8  12
DOCKED: ATOM     12  C   UNL     1       8.757  28.609  19.980 -0.06 -0.13    +0.139 C  
DOCKED: BRANCH  12  16
DOCKED: ATOM     13  C   UNL     1      10.797  25.263  18.130 -0.17 +0.00    -0.010 A  
DOCKED: ATOM     14  C   UNL     1       9.501  25.095  18.649 -0.13 -0.01    +0.009 A  
DOCKED: ATOM     15  C   UNL     1       8.829  26.152  19.277 -0.10 -0.01    +0.006 A  
DOCKED: ATOM     16  C   UNL     1       9.453  27.395  19.435 -0.04 +0.03    -0.030 A  
DOCKED: ATOM     17  C   UNL     1      10.748  27.561  18.939 -0.10 -0.00    +0.006 A  
DOCKED: ATOM     18  C   UNL     1      11.399  26.517  18.286 -0.18 -0.00    +0.009 A  
DOCKED: BRANCH  13  24
DOCKED: ATOM     19  C   UNL     1      10.045  23.727  15.325 -0.43 -0.00    +0.067 C  
DOCKED: ATOM     20  C   UNL     1      11.204  23.508  16.235 -0.27 +0.00    +0.053 A  
DOCKED: ATOM     21  N   UNL     1      12.095  22.510  15.875 -0.21 -0.02    -0.252 NA 
DOCKED: ATOM     22  C   UNL     1      13.057  22.428  16.762 -0.22 -0.00    +0.156 A  
DOCKED: ATOM     23  S   UNL     1      12.966  23.520  18.070 -0.20 +0.00    -0.075 S  
DOCKED: ATOM     24  C   UNL     1      11.510  24.189  17.414 -0.18 -0.00    +0.042 A  
DOCKED: ENDBRANCH  13  24
DOCKED: ENDBRANCH  12  16
DOCKED: ENDBRANCH   8  12
DOCKED: ENDBRANCH   1   9
DOCKED: BRANCH   3  25
DOCKED: ATOM     25  O   UNL     1       4.057  31.886  16.520 -0.33 +0.24    -0.390 OA 
DOCKED: ATOM     26  H   UNL     1       3.817  32.197  15.631 -0.09 -0.06    +0.210 HD 
DOCKED: ENDBRANCH   3  25
DOCKED: BRANCH   6  27
DOCKED: ATOM     27  C   UNL     1       8.826  33.159  18.239 -0.10 -0.04    +0.164 C  
DOCKED: BRANCH  27  28
DOCKED: ATOM     28  N   UNL     1       8.008  33.370  19.439 -0.02 +0.09    -0.302 N  
DOCKED: ATOM     29  C   UNL     1       6.902  34.178  19.539 -0.09 -0.07    +0.239 C  
DOCKED: ATOM     30  O   UNL     1       6.591  35.042  18.729 -0.16 -0.02    -0.273 OA 
DOCKED: ATOM     31  H   UNL     1       8.201  32.763  20.232 +0.02 -0.06    +0.150 HD 
DOCKED: BRANCH  29  32
DOCKED: ATOM     32  C   UNL     1       6.069  33.909  20.797 -0.03 -0.15    +0.251 C  
DOCKED: BRANCH  32  33
DOCKED: ATOM     33  O   UNL     1       6.786  33.132  21.750 -0.03 +0.20    -0.386 OA 
DOCKED: ATOM     34  H   UNL     1       6.803  32.223  21.397 +0.02 -0.12    +0.210 HD 
DOCKED: ENDBRANCH  32  33
DOCKED: ENDBRANCH  29  32
DOCKED: ENDBRANCH  27  28
DOCKED: BRANCH  27  35
DOCKED: ATOM     35  C   UNL     1      10.121  32.320  18.529 -0.10 +0.00    -0.011 C  
DOCKED: ATOM     36  C   UNL     1      10.180  31.126  17.550 -0.19 -0.01    +0.013 C  
DOCKED: ATOM     37  C   UNL     1      11.380  33.183  18.262 -0.06 -0.00    +0.013 C  
DOCKED: ATOM     38  C   UNL     1      10.221  31.800  19.973 -0.04 -0.00    +0.013 C  
DOCKED: ENDBRANCH  27  35
DOCKED: ENDBRANCH   6  27
DOCKED: TORSDOF 10
DOCKED: TER
DOCKED: ENDMDL
________________________________________________________________________________


    FINAL DOCKED STATE:
    ________________________


Run:   48 / 50
Time taken for this run:   0.000s

DOCKED: MODEL        48
DOCKED: USER    Run = 48
DOCKED: USER
DOCKED: USER    Estimated Free Energy of Binding    =  -3.78 kcal/mol  [=(1)+(2)+(3)-(4)]
DOCKED: USER
DOCKED: USER    (1) Final Intermolecular Energy     =  -6.76 kcal/mol
DOCKED: USER        vdW + Hbond + desolv Energy     =  -6.55 kcal/mol
DOCKED: USER        Electrostatic Energy            =  -0.21 kcal/mol
DOCKED: USER        Moving Ligand-Fixed Receptor    =  -6.76 kcal/mol
DOCKED: USER        Moving Ligand-Moving Receptor   =  +0.00 kcal/mol
DOCKED: USER    (2) Final Total Internal Energy     =  -4.24 kcal/mol
DOCKED: USER    (3) Torsional Free Energy           =  +2.98 kcal/mol
DOCKED: USER    (4) Unbound System's Energy         =  -4.24 kcal/mol
DOCKED: USER
DOCKED: USER
DOCKED: REMARK  Name = 
DOCKED: REMARK  14 active torsions:
DOCKED: REMARK  status: ('A' for Active; 'I' for Inactive)
DOCKED: REMARK    1  A    between atoms: C_1  and  C_2
DOCKED: REMARK    2  A    between atoms: C_6  and  C_7
DOCKED: REMARK    3  A    between atoms: C_10  and  C_11
DOCKED: REMARK    4  A    between atoms: C_11  and  N_12
DOCKED: REMARK    5  A    between atoms: C_13  and  C_15
DOCKED: REMARK    6  A    between atoms: C_17  and  O_18
DOCKED: REMARK    7  A    between atoms: C_21  and  C_23
DOCKED: REMARK    8  A    between atoms: C_23  and  N_24
DOCKED: REMARK    9  A    between atoms: C_23  and  C_29
DOCKED: REMARK   10  A    between atoms: C_25  and  C_27
DOCKED: REMARK   11  A    between atoms: C_27  and  O_28
DOCKED: REMARK   12  A    between atoms: C_29  and  C_30
DOCKED: REMARK   13  A    between atoms: C_29  and  C_31
DOCKED: REMARK   14  A    between atoms: C_29  and  C_32
DOCKED: REMARK                            x       y       z     vdW  Elec       q    Type
DOCKED: REMARK                         _______ _______ _______ _____ _____    ______ ____
DOCKED: USER                              x       y       z     vdW  Elec       q    Type
DOCKED: USER                           _______ _______ _______ _____ _____    ______ ____
DOCKED: ROOT
DOCKED: ATOM      1  C   UNL     1       7.520  22.775  16.829 -0.20 -0.06    +0.164 C  
DOCKED: ATOM      2  C   UNL     1       6.227  22.443  16.050 -0.28 -0.03    +0.065 C  
DOCKED: ATOM      3  C   UNL     1       5.178  23.360  16.637 -0.18 -0.06    +0.134 C  
DOCKED: ATOM      4  C   UNL     1       5.965  24.629  16.944 -0.13 -0.13    +0.140 C  
DOCKED: ATOM      5  N   UNL     1       7.324  24.179  17.258 -0.13 +0.20    -0.286 N  
DOCKED: ATOM      6  C   UNL     1       8.020  24.902  18.224 -0.09 -0.20    +0.237 C  
DOCKED: ATOM      7  O   UNL     1       7.468  25.868  18.761 -0.11 +0.34    -0.274 OA 
DOCKED: ENDROOT
DOCKED: BRANCH   1   9
DOCKED: ATOM      8  N   UNL     1       9.862  23.316  16.108 -0.18 +0.05    -0.310 N  
DOCKED: ATOM      9  C   UNL     1       8.800  22.446  16.014 -0.26 -0.06    +0.234 C  
DOCKED: ATOM     10  O   UNL     1       8.889  21.445  15.304 -0.25 +0.05    -0.274 OA 
DOCKED: ATOM     11  H   UNL     1       9.686  24.299  16.259 +0.05 -0.04    +0.149 HD 
DOCKED: BRANCH   8  12
DOCKED: ATOM     12  C   UNL     1      11.075  22.998  15.402 -0.29 +0.01    +0.139 C  
DOCKED: BRANCH  12  16
DOCKED: ATOM     13  C   UNL     1      14.635  22.767  17.862 -0.27 +0.00    -0.010 A  
DOCKED: ATOM     14  C   UNL     1      14.296  21.696  17.018 -0.34 -0.00    +0.009 A  
DOCKED: ATOM     15  C   UNL     1      13.136  21.732  16.232 -0.35 -0.00    +0.006 A  
DOCKED: ATOM     16  C   UNL     1      12.266  22.826  16.302 -0.24 -0.00    -0.030 A  
DOCKED: ATOM     17  C   UNL     1      12.589  23.885  17.154 -0.16 +0.00    +0.006 A  
DOCKED: ATOM     18  C   UNL     1      13.760  23.859  17.908 -0.17 -0.00    +0.009 A  
DOCKED: BRANCH  13  24
DOCKED: ATOM     19  C   UNL     1      17.577  24.056  17.169 -0.32 -0.01    +0.067 C  
DOCKED: ATOM     20  C   UNL     1      17.140  23.308  18.381 -0.14 -0.01    +0.053 A  
DOCKED: ATOM     21  N   UNL     1      18.098  23.103  19.361 -0.05 +0.02    -0.252 NA 
DOCKED: ATOM     22  C   UNL     1      17.578  22.435  20.362 -0.07 -0.01    +0.156 A  
DOCKED: ATOM     23  S   UNL     1      15.932  22.010  20.206 -0.15 +0.00    -0.075 S  
DOCKED: ATOM     24  C   UNL     1      15.876  22.786  18.659 -0.18 -0.01    +0.042 A  
DOCKED: ENDBRANCH  13  24
DOCKED: ENDBRANCH  12  16
DOCKED: ENDBRANCH   8  12
DOCKED: ENDBRANCH   1   9
DOCKED: BRANCH   3  25
DOCKED: ATOM     25  O   UNL     1       4.631  22.747  17.798 -0.01 +0.14    -0.390 OA 
DOCKED: ATOM     26  H   UNL     1       5.284  22.800  18.515 +0.03 -0.07    +0.210 HD 
DOCKED: ENDBRANCH   3  25
DOCKED: BRANCH   6  27
DOCKED: ATOM     27  C   UNL     1       9.483  24.516  18.601 -0.10 -0.08    +0.164 C  
DOCKED: BRANCH  27  28
DOCKED: ATOM     28  N   UNL     1      10.365  25.683  18.713 -0.08 +0.15    -0.302 N  
DOCKED: ATOM     29  C   UNL     1      10.822  26.461  17.678 -0.14 -0.11    +0.239 C  
DOCKED: ATOM     30  O   UNL     1      10.785  26.144  16.496 -0.54 -0.01    -0.273 OA 
DOCKED: ATOM     31  H   UNL     1      10.548  26.025  19.654 +0.02 -0.07    +0.150 HD 
DOCKED: BRANCH  29  32
DOCKED: ATOM     32  C   UNL     1      11.415  27.796  18.141 -0.13 -0.10    +0.251 C  
DOCKED: BRANCH  32  33
DOCKED: ATOM     33  O   UNL     1      11.416  28.765  17.099 -0.55 +0.02    -0.386 OA 
DOCKED: ATOM     34  H   UNL     1      10.779  28.444  16.434 -0.41 -0.14    +0.210 HD 
DOCKED: ENDBRANCH  32  33
DOCKED: ENDBRANCH  29  32
DOCKED: ENDBRANCH  27  28
DOCKED: BRANCH  27  35
DOCKED: ATOM     35  C   UNL     1       9.634  23.525  19.809 -0.04 +0.00    -0.011 C  
DOCKED: ATOM     36  C   UNL     1       9.712  22.079  19.271 -0.05 -0.00    +0.013 C  
DOCKED: ATOM     37  C   UNL     1      10.965  23.800  20.554 -0.02 -0.00    +0.013 C  
DOCKED: ATOM     38  C   UNL     1       8.502  23.622  20.847 -0.01 -0.00    +0.013 C  
DOCKED: ENDBRANCH  27  35
DOCKED: ENDBRANCH   6  27
DOCKED: TORSDOF 10
DOCKED: TER
DOCKED: ENDMDL
________________________________________________________________________________


    FINAL DOCKED STATE:
    ________________________


Run:   49 / 50
Time taken for this run:   0.000s

DOCKED: MODEL        49
DOCKED: USER    Run = 49
DOCKED: USER
DOCKED: USER    Estimated Free Energy of Binding    =  -2.98 kcal/mol  [=(1)+(2)+(3)-(4)]
DOCKED: USER
DOCKED: USER    (1) Final Intermolecular Energy     =  -5.96 kcal/mol
DOCKED: USER        vdW + Hbond + desolv Energy     =  -5.70 kcal/mol
DOCKED: USER        Electrostatic Energy            =  -0.26 kcal/mol
DOCKED: USER        Moving Ligand-Fixed Receptor    =  -5.96 kcal/mol
DOCKED: USER        Moving Ligand-Moving Receptor   =  +0.00 kcal/mol
DOCKED: USER    (2) Final Total Internal Energy     =  -4.89 kcal/mol
DOCKED: USER    (3) Torsional Free Energy           =  +2.98 kcal/mol
DOCKED: USER    (4) Unbound System's Energy         =  -4.89 kcal/mol
DOCKED: USER
DOCKED: USER
DOCKED: REMARK  Name = 
DOCKED: REMARK  14 active torsions:
DOCKED: REMARK  status: ('A' for Active; 'I' for Inactive)
DOCKED: REMARK    1  A    between atoms: C_1  and  C_2
DOCKED: REMARK    2  A    between atoms: C_6  and  C_7
DOCKED: REMARK    3  A    between atoms: C_10  and  C_11
DOCKED: REMARK    4  A    between atoms: C_11  and  N_12
DOCKED: REMARK    5  A    between atoms: C_13  and  C_15
DOCKED: REMARK    6  A    between atoms: C_17  and  O_18
DOCKED: REMARK    7  A    between atoms: C_21  and  C_23
DOCKED: REMARK    8  A    between atoms: C_23  and  N_24
DOCKED: REMARK    9  A    between atoms: C_23  and  C_29
DOCKED: REMARK   10  A    between atoms: C_25  and  C_27
DOCKED: REMARK   11  A    between atoms: C_27  and  O_28
DOCKED: REMARK   12  A    between atoms: C_29  and  C_30
DOCKED: REMARK   13  A    between atoms: C_29  and  C_31
DOCKED: REMARK   14  A    between atoms: C_29  and  C_32
DOCKED: REMARK                            x       y       z     vdW  Elec       q    Type
DOCKED: REMARK                         _______ _______ _______ _____ _____    ______ ____
DOCKED: USER                              x       y       z     vdW  Elec       q    Type
DOCKED: USER                           _______ _______ _______ _____ _____    ______ ____
DOCKED: ROOT
DOCKED: ATOM      1  C   UNL     1      11.443  25.463  17.765 -0.18 -0.02    +0.164 C  
DOCKED: ATOM      2  C   UNL     1      12.607  26.468  17.612 -0.15 +0.01    +0.065 C  
DOCKED: ATOM      3  C   UNL     1      11.997  27.814  17.935 -0.18 -0.01    +0.134 C  
DOCKED: ATOM      4  C   UNL     1      10.987  27.479  19.027 -0.11 -0.08    +0.140 C  
DOCKED: ATOM      5  N   UNL     1      10.536  26.115  18.737 -0.08 +0.15    -0.286 N  
DOCKED: ATOM      6  C   UNL     1       9.208  25.815  19.029 -0.09 -0.19    +0.237 C  
DOCKED: ATOM      7  O   UNL     1       8.487  26.696  19.509 -0.10 +0.28    -0.274 OA 
DOCKED: ENDROOT
DOCKED: BRANCH   1   9
DOCKED: ATOM      8  N   UNL     1      12.750  23.401  17.181 -0.10 -0.01    -0.310 N  
DOCKED: ATOM      9  C   UNL     1      11.941  24.030  18.098 -0.10 -0.02    +0.234 C  
DOCKED: ATOM     10  O   UNL     1      11.639  23.456  19.144 -0.03 +0.05    -0.274 OA 
DOCKED: ATOM     11  H   UNL     1      12.632  23.601  16.197 +0.06 +0.04    +0.149 HD 
DOCKED: BRANCH   8  12
DOCKED: ATOM     12  C   UNL     1      13.264  22.096  17.498 -0.26 -0.01    +0.139 C  
DOCKED: BRANCH  12  16
DOCKED: ATOM     13  C   UNL     1       9.998  19.249  17.578 -0.22 +0.00    -0.010 A  
DOCKED: ATOM     14  C   UNL     1      10.807  19.419  18.714 -0.13 -0.00    +0.009 A  
DOCKED: ATOM     15  C   UNL     1      11.887  20.313  18.708 -0.13 -0.00    +0.006 A  
DOCKED: ATOM     16  C   UNL     1      12.207  21.030  17.549 -0.20 +0.00    -0.030 A  
DOCKED: ATOM     17  C   UNL     1      11.417  20.850  16.411 -0.32 -0.00    +0.006 A  
DOCKED: ATOM     18  C   UNL     1      10.324  19.986  16.433 -0.33 -0.00    +0.009 A  
DOCKED: BRANCH  13  24
DOCKED: ATOM     19  C   UNL     1       9.555  16.309  18.975 -0.20 -0.00    +0.067 C  
DOCKED: ATOM     20  C   UNL     1       8.613  17.103  18.137 -0.14 -0.00    +0.053 A  
DOCKED: ATOM     21  N   UNL     1       7.376  16.533  17.886 -0.12 +0.00    -0.252 NA 
DOCKED: ATOM     22  C   UNL     1       6.657  17.336  17.140 -0.17 -0.01    +0.156 A  
DOCKED: ATOM     23  S   UNL     1       7.397  18.807  16.691 -0.33 +0.01    -0.075 S  
DOCKED: ATOM     24  C   UNL     1       8.821  18.361  17.569 -0.19 -0.00    +0.042 A  
DOCKED: ENDBRANCH  13  24
DOCKED: ENDBRANCH  12  16
DOCKED: ENDBRANCH   8  12
DOCKED: ENDBRANCH   1   9
DOCKED: BRANCH   3  25
DOCKED: ATOM     25  O   UNL     1      11.395  28.339  16.758 -0.47 -0.07    -0.390 OA 
DOCKED: ATOM     26  H   UNL     1      10.444  28.452  16.919 -0.40 -0.36    +0.210 HD 
DOCKED: ENDBRANCH   3  25
DOCKED: BRANCH   6  27
DOCKED: ATOM     27  C   UNL     1       8.647  24.381  18.783 -0.10 -0.09    +0.164 C  
DOCKED: BRANCH  27  28
DOCKED: ATOM     28  N   UNL     1       9.156  23.780  17.545 -0.09 +0.12    -0.302 N  
DOCKED: ATOM     29  C   UNL     1       8.441  23.558  16.394 -0.21 -0.10    +0.239 C  
DOCKED: ATOM     30  O   UNL     1       7.220  23.578  16.314 -0.22 +0.14    -0.273 OA 
DOCKED: ATOM     31  H   UNL     1      10.161  23.634  17.492 +0.05 -0.04    +0.150 HD 
DOCKED: BRANCH  29  32
DOCKED: ATOM     32  C   UNL     1       9.328  23.258  15.181 -0.21 -0.05    +0.251 C  
DOCKED: BRANCH  32  33
DOCKED: ATOM     33  O   UNL     1      10.654  23.745  15.360 -0.24 -0.02    -0.386 OA 
DOCKED: ATOM     34  H   UNL     1      10.563  24.684  15.605 +0.09 +0.01    +0.210 HD 
DOCKED: ENDBRANCH  32  33
DOCKED: ENDBRANCH  29  32
DOCKED: ENDBRANCH  27  28
DOCKED: BRANCH  27  35
DOCKED: ATOM     35  C   UNL     1       8.723  23.402  20.008 -0.03 +0.00    -0.011 C  
DOCKED: ATOM     36  C   UNL     1       9.672  23.995  21.072 -0.01 -0.00    +0.013 C  
DOCKED: ATOM     37  C   UNL     1       7.327  23.276  20.671 -0.02 -0.00    +0.013 C  
DOCKED: ATOM     38  C   UNL     1       9.186  21.980  19.646 -0.04 -0.00    +0.013 C  
DOCKED: ENDBRANCH  27  35
DOCKED: ENDBRANCH   6  27
DOCKED: TORSDOF 10
DOCKED: TER
DOCKED: ENDMDL
________________________________________________________________________________


    FINAL DOCKED STATE:
    ________________________


Run:   50 / 50
Time taken for this run:   0.000s

DOCKED: MODEL        50
DOCKED: USER    Run = 50
DOCKED: USER
DOCKED: USER    Estimated Free Energy of Binding    =  -3.24 kcal/mol  [=(1)+(2)+(3)-(4)]
DOCKED: USER
DOCKED: USER    (1) Final Intermolecular Energy     =  -6.23 kcal/mol
DOCKED: USER        vdW + Hbond + desolv Energy     =  -5.78 kcal/mol
DOCKED: USER        Electrostatic Energy            =  -0.44 kcal/mol
DOCKED: USER        Moving Ligand-Fixed Receptor    =  -6.23 kcal/mol
DOCKED: USER        Moving Ligand-Moving Receptor   =  +0.00 kcal/mol
DOCKED: USER    (2) Final Total Internal Energy     =  -4.49 kcal/mol
DOCKED: USER    (3) Torsional Free Energy           =  +2.98 kcal/mol
DOCKED: USER    (4) Unbound System's Energy         =  -4.49 kcal/mol
DOCKED: USER
DOCKED: USER
DOCKED: REMARK  Name = 
DOCKED: REMARK  14 active torsions:
DOCKED: REMARK  status: ('A' for Active; 'I' for Inactive)
DOCKED: REMARK    1  A    between atoms: C_1  and  C_2
DOCKED: REMARK    2  A    between atoms: C_6  and  C_7
DOCKED: REMARK    3  A    between atoms: C_10  and  C_11
DOCKED: REMARK    4  A    between atoms: C_11  and  N_12
DOCKED: REMARK    5  A    between atoms: C_13  and  C_15
DOCKED: REMARK    6  A    between atoms: C_17  and  O_18
DOCKED: REMARK    7  A    between atoms: C_21  and  C_23
DOCKED: REMARK    8  A    between atoms: C_23  and  N_24
DOCKED: REMARK    9  A    between atoms: C_23  and  C_29
DOCKED: REMARK   10  A    between atoms: C_25  and  C_27
DOCKED: REMARK   11  A    between atoms: C_27  and  O_28
DOCKED: REMARK   12  A    between atoms: C_29  and  C_30
DOCKED: REMARK   13  A    between atoms: C_29  and  C_31
DOCKED: REMARK   14  A    between atoms: C_29  and  C_32
DOCKED: REMARK                            x       y       z     vdW  Elec       q    Type
DOCKED: REMARK                         _______ _______ _______ _____ _____    ______ ____
DOCKED: USER                              x       y       z     vdW  Elec       q    Type
DOCKED: USER                           _______ _______ _______ _____ _____    ______ ____
DOCKED: ROOT
DOCKED: ATOM      1  C   UNL     1      21.124  31.851  11.349 -0.08 -0.04    +0.164 C  
DOCKED: ATOM      2  C   UNL     1      19.924  31.050  11.902 -0.18 -0.03    +0.065 C  
DOCKED: ATOM      3  C   UNL     1      18.751  31.473  11.044 -0.20 -0.12    +0.134 C  
DOCKED: ATOM      4  C   UNL     1      19.386  31.672   9.672 -0.24 -0.03    +0.140 C  
DOCKED: ATOM      5  N   UNL     1      20.760  32.106   9.936 -0.09 +0.03    -0.286 N  
DOCKED: ATOM      6  C   UNL     1      21.317  33.017   9.042 -0.13 +0.03    +0.237 C  
DOCKED: ATOM      7  O   UNL     1      20.638  33.410   8.088 -0.57 -0.19    -0.274 OA 
DOCKED: ENDROOT
DOCKED: BRANCH   1   9
DOCKED: ATOM      8  N   UNL     1      22.588  29.813  11.306 -0.12 +0.06    -0.310 N  
DOCKED: ATOM      9  C   UNL     1      22.480  31.147  11.625 -0.08 -0.05    +0.234 C  
DOCKED: ATOM     10  O   UNL     1      23.443  31.741  12.109 -0.03 +0.06    -0.274 OA 
DOCKED: ATOM     11  H   UNL     1      21.771  29.221  11.369 +0.06 -0.03    +0.149 HD 
DOCKED: BRANCH   8  12
DOCKED: ATOM     12  C   UNL     1      23.854  29.159  11.505 -0.19 -0.04    +0.139 C  
DOCKED: BRANCH  12  16
DOCKED: ATOM     13  C   UNL     1      23.375  25.379  13.568 -0.20 +0.00    -0.010 A  
DOCKED: ATOM     14  C   UNL     1      23.005  26.576  14.204 -0.14 -0.00    +0.009 A  
DOCKED: ATOM     15  C   UNL     1      23.174  27.815  13.571 -0.13 -0.00    +0.006 A  
DOCKED: ATOM     16  C   UNL     1      23.755  27.889  12.300 -0.23 +0.01    -0.030 A  
DOCKED: ATOM     17  C   UNL     1      24.143  26.702  11.672 -0.29 -0.00    +0.006 A  
DOCKED: ATOM     18  C   UNL     1      23.942  25.471  12.291 -0.28 -0.00    +0.009 A  
DOCKED: BRANCH  13  24
DOCKED: ATOM     19  C   UNL     1      21.045  24.368  15.653 -0.24 -0.02    +0.067 C  
DOCKED: ATOM     20  C   UNL     1      22.192  23.606  15.082 -0.27 -0.02    +0.053 A  
DOCKED: ATOM     21  N   UNL     1      22.321  22.287  15.487 -0.21 +0.06    -0.252 NA 
DOCKED: ATOM     22  C   UNL     1      23.366  21.744  14.912 -0.18 -0.04    +0.156 A  
DOCKED: ATOM     23  S   UNL     1      24.257  22.755  13.863 -0.22 +0.02    -0.075 S  
DOCKED: ATOM     24  C   UNL     1      23.159  24.056  14.183 -0.17 -0.02    +0.042 A  
DOCKED: ENDBRANCH  13  24
DOCKED: ENDBRANCH  12  16
DOCKED: ENDBRANCH   8  12
DOCKED: ENDBRANCH   1   9
DOCKED: BRANCH   3  25
DOCKED: ATOM     25  O   UNL     1      18.197  32.667  11.583 -0.02 +0.44    -0.390 OA 
DOCKED: ATOM     26  H   UNL     1      17.229  32.617  11.521 -0.41 -0.53    +0.210 HD 
DOCKED: ENDBRANCH   3  25
DOCKED: BRANCH   6  27
DOCKED: ATOM     27  C   UNL     1      22.784  33.511   9.225 -0.08 -0.00    +0.164 C  
DOCKED: BRANCH  27  28
DOCKED: ATOM     28  N   UNL     1      23.070  33.939  10.600 +0.00 +0.04    -0.302 N  
DOCKED: ATOM     29  C   UNL     1      22.374  34.876  11.322 +0.00 -0.04    +0.239 C  
DOCKED: ATOM     30  O   UNL     1      21.586  35.683  10.845 +0.00 +0.04    -0.273 OA 
DOCKED: ATOM     31  H   UNL     1      23.766  33.398  11.108 +0.02 -0.02    +0.150 HD 
DOCKED: BRANCH  29  32
DOCKED: ATOM     32  C   UNL     1      22.686  34.837  12.822 +0.00 -0.05    +0.251 C  
DOCKED: BRANCH  32  33
DOCKED: ATOM     33  O   UNL     1      23.908  34.159  13.091 +0.00 +0.07    -0.386 OA 
DOCKED: ATOM     34  H   UNL     1      23.732  33.214  12.928 +0.01 -0.04    +0.210 HD 
DOCKED: ENDBRANCH  32  33
DOCKED: ENDBRANCH  29  32
DOCKED: ENDBRANCH  27  28
DOCKED: BRANCH  27  35
DOCKED: ATOM     35  C   UNL     1      23.897  32.569   8.641 -0.26 -0.00    -0.011 C  
DOCKED: ATOM     36  C   UNL     1      23.345  31.130   8.550 -0.19 +0.00    +0.013 C  
DOCKED: ATOM     37  C   UNL     1      24.254  33.006   7.197 -0.24 +0.00    +0.013 C  
DOCKED: ATOM     38  C   UNL     1      25.204  32.564   9.452 -0.20 -0.00    +0.013 C  
DOCKED: ENDBRANCH  27  35
DOCKED: ENDBRANCH   6  27
DOCKED: TORSDOF 10
DOCKED: TER
DOCKED: ENDMDL
________________________________________________________________________________


    CLUSTERING HISTOGRAM
    ____________________


________________________________________________________________________________
     |           |     |           |     |
Clus | Lowest    | Run | Mean      | Num | Histogram
-ter | Binding   |     | Binding   | in  |
Rank | Energy    |     | Energy    | Clus|    5    10   15   20   25   30   35
_____|___________|_____|___________|_____|____:____|____:____|____:____|____:___
   1 |     -4.49 |  22 |     -4.30 |   4 |####
   2 |     -4.33 |  39 |     -4.31 |   2 |##
   3 |     -4.23 |  41 |     -4.15 |   5 |#####
   4 |     -3.87 |  36 |     -3.83 |   2 |##
   5 |     -3.62 |  15 |     -3.62 |   1 |#
   6 |     -3.39 |  12 |     -3.39 |   1 |#
   7 |     -3.36 |  23 |     -3.11 |   9 |#########
   8 |     -3.24 |  50 |     -3.24 |   1 |#
   9 |     -3.18 |   4 |     -3.11 |   4 |####
  10 |     -3.12 |  32 |     -3.09 |   2 |##
  11 |     -3.11 |  45 |     -3.11 |   1 |#
  12 |     -3.11 |  29 |     -2.96 |   5 |#####
  13 |     -3.08 |  38 |     -3.08 |   1 |#
  14 |     -3.07 |  34 |     -3.07 |   1 |#
  15 |     -3.06 |  47 |     -3.06 |   1 |#
  16 |     -2.92 |  16 |     -2.92 |   1 |#
  17 |     -2.86 |  19 |     -2.86 |   1 |#
  18 |     -2.63 |   9 |     -2.63 |   1 |#
  19 |     -2.59 |  17 |     -2.57 |   4 |####
  20 |     -2.49 |  27 |     -2.49 |   1 |#
  21 |     -2.45 |  14 |     -2.44 |   2 |##
_____|___________|_____|___________|_____|______________________________________


    RMSD TABLE
    __________


_______________________________________________________________________
     |      |      |           |         |                 |
Rank | Sub- | Run  | Binding   | Cluster | Reference       | Grep
     | Rank |      | Energy    | RMSD    | RMSD            | Pattern
_____|______|______|___________|_________|_________________|___________
   1      1     22       -4.49      0.00     43.84           RANKING
   1      2      1       -4.33      1.36     44.12           RANKING
   1      3      7       -4.20      1.06     43.88           RANKING
   1      4     21       -4.20      1.33     44.18           RANKING
   2      1     39       -4.33      0.00     41.27           RANKING
   2      2     18       -4.29      0.45     41.20           RANKING
   3      1     41       -4.23      0.00     44.07           RANKING
   3      2     24       -4.14      0.67     43.95           RANKING
   3      3     28       -4.14      1.80     43.94           RANKING
   3      4     46       -4.11      1.02     44.17           RANKING
   3      5     31       -4.11      1.01     44.11           RANKING
   4      1     36       -3.87      0.00     41.69           RANKING
   4      2     48       -3.78      1.28     41.94           RANKING
   5      1     15       -3.62      0.00     49.65           RANKING
   6      1     12       -3.39      0.00     48.97           RANKING
   7      1     23       -3.36      0.00     40.70           RANKING
   7      2     40       -3.35      0.14     40.72           RANKING
   7      3     26       -3.24      0.55     40.48           RANKING
   7      4      8       -3.21      1.32     40.49           RANKING
   7      5     10       -3.17      1.39     40.43           RANKING
   7      6     42       -3.16      0.24     40.77           RANKING
   7      7     35       -3.09      1.47     40.40           RANKING
   7      8     33       -2.76      1.74     41.10           RANKING
   7      9      6       -2.68      1.97     41.13           RANKING
   8      1     50       -3.24      0.00     49.33           RANKING
   9      1      4       -3.18      0.00     40.52           RANKING
   9      2     20       -3.16      1.50     41.86           RANKING
   9      3     43       -3.14      1.09     40.51           RANKING
   9      4     49       -2.98      1.92     40.49           RANKING
  10      1     32       -3.12      0.00     39.51           RANKING
  10      2     13       -3.06      0.23     39.55           RANKING
  11      1     45       -3.11      0.00     39.56           RANKING
  12      1     29       -3.11      0.00     39.49           RANKING
  12      2      3       -3.05      0.42     39.43           RANKING
  12      3     25       -2.97      1.08     39.57           RANKING
  12      4      2       -2.86      1.95     40.78           RANKING
  12      5     11       -2.81      1.79     38.77           RANKING
  13      1     38       -3.08      0.00     40.32           RANKING
  14      1     34       -3.07      0.00     40.14           RANKING
  15      1     47       -3.06      0.00     45.88           RANKING
  16      1     16       -2.92      0.00     41.09           RANKING
  17      1     19       -2.86      0.00     41.78           RANKING
  18      1      9       -2.63      0.00     41.15           RANKING
  19      1     17       -2.59      0.00     41.47           RANKING
  19      2     44       -2.58      0.08     41.48           RANKING
  19      3      5       -2.55      0.17     41.50           RANKING
  19      4     30       -2.55      0.22     41.50           RANKING
  20      1     27       -2.49      0.00     40.26           RANKING
  21      1     14       -2.45      0.00     42.88           RANKING
  21      2     37       -2.42      0.10     42.89           RANKING

Run time 2.862 sec
Idle time 0.347 sec
